VARIABLES= "Y" "Z" "Xsec" "Px" "Py" "Pz" "U" "V" "W" "Pmag"
ZONE T="YZ_mid_T1.500_C21.988_TS0", I=24, J=10, K=1, DATAPACKING=POINT, STRANDID=1, SOLUTIONTIME=0.000000
-42.09720 21.92980 21.98834 -1.25288e-01 -1.31710e-01 -1.53157e-01 -1.31710e-01 -1.53157e-01 -1.25288e-01 2.37701e-01
-38.09630 21.94180 21.98834 -1.38044e-01 -1.34235e-01 -1.41023e-01 -1.34235e-01 -1.41023e-01 -1.38044e-01 2.38669e-01
-34.09720 22.10580 21.98834 -1.25666e-01 -1.46564e-01 1.33574e-01 -1.46564e-01 1.33574e-01 -1.25666e-01 2.34766e-01
-30.09990 22.09520 21.98834 1.44308e-01 -1.53177e-01 1.61832e-01 -1.53177e-01 1.61832e-01 1.44308e-01 2.65476e-01
-26.08200 22.09690 21.98834 1.25328e-01 -1.44131e-01 1.69498e-01 -1.44131e-01 1.69498e-01 1.25328e-01 2.55363e-01
-22.07920 22.08650 21.98834 -1.18437e-01 -1.41662e-01 1.49633e-01 -1.41662e-01 1.49633e-01 -1.18437e-01 2.37667e-01
-18.08100 22.08490 21.98834 -1.57123e-01 -1.27290e-01 1.36354e-01 -1.27290e-01 1.36354e-01 -1.57123e-01 2.43891e-01
-14.09770 21.94870 21.98834 -1.50923e-01 -1.28172e-01 -1.37630e-01 -1.28172e-01 -1.37630e-01 -1.50923e-01 2.41139e-01
-10.09440 21.95370 21.98834 -1.48554e-01 -1.34333e-01 -1.43302e-01 -1.34333e-01 -1.43302e-01 -1.48554e-01 2.46271e-01
-6.08430 21.95010 21.98834 1.33838e-01 -1.24734e-01 -1.38210e-01 -1.24734e-01 -1.38210e-01 1.33838e-01 2.29289e-01
-2.09220 21.95060 21.98834 1.38703e-01 -1.31120e-01 -1.38886e-01 -1.31120e-01 -1.38886e-01 1.38703e-01 2.36052e-01
1.91801 21.94200 21.98834 1.41074e-01 -1.22396e-01 -1.54465e-01 -1.22396e-01 -1.54465e-01 1.41074e-01 2.42368e-01
5.90964 21.95140 21.98834 -1.13740e-01 -1.22047e-01 -1.32382e-01 -1.22047e-01 -1.32382e-01 -1.13740e-01 2.12972e-01
9.90748 21.94130 21.98834 -1.39635e-01 -1.23421e-01 -1.31582e-01 -1.23421e-01 -1.31582e-01 -1.39635e-01 2.28132e-01
13.90840 22.11110 21.98834 -1.32556e-01 -1.15749e-01 1.59591e-01 -1.15749e-01 1.59591e-01 -1.32556e-01 2.37567e-01
17.90030 22.10590 21.98834 -1.35468e-01 -1.20310e-01 1.66963e-01 -1.20310e-01 1.66963e-01 -1.35468e-01 2.46379e-01
21.89780 22.12170 21.98834 -1.43471e-01 -1.24058e-01 1.72819e-01 -1.24058e-01 1.72819e-01 -1.43471e-01 2.56595e-01
25.89960 22.12810 21.98834 -1.48480e-01 -1.24547e-01 1.61845e-01 -1.24547e-01 1.61845e-01 -1.48480e-01 2.52492e-01
29.89280 22.13670 21.98834 -1.44231e-01 -1.33831e-01 1.53700e-01 -1.33831e-01 1.53700e-01 -1.44231e-01 2.49674e-01
33.90000 22.10820 21.98834 -1.30079e-01 -1.32820e-01 1.32163e-01 -1.32820e-01 1.32163e-01 -1.30079e-01 2.28098e-01
37.87280 21.92570 21.98834 -1.47424e-01 -1.52236e-01 -1.47240e-01 -1.52236e-01 -1.47240e-01 -1.47424e-01 2.58049e-01
41.88370 21.94960 21.98834 -1.31449e-01 -1.50323e-01 -1.30349e-01 -1.50323e-01 -1.30349e-01 -1.31449e-01 2.38467e-01
45.89130 22.08590 21.98834 1.26112e-01 -1.49765e-01 1.16847e-01 -1.49765e-01 1.16847e-01 1.26112e-01 2.28007e-01
49.90710 21.93980 21.98834 -1.41845e-01 -1.42571e-01 -1.20316e-01 -1.42571e-01 -1.20316e-01 -1.41845e-01 2.34355e-01
-42.08890 17.91100 21.98834 1.19879e-01 -1.38787e-01 -1.57468e-01 -1.38787e-01 -1.57468e-01 1.19879e-01 2.41721e-01
-38.09250 17.93820 21.98834 -1.34523e-01 -1.44208e-01 -1.43919e-01 -1.44208e-01 -1.43919e-01 -1.34523e-01 2.44142e-01
-34.09830 18.09710 21.98834 -1.35258e-01 -1.57902e-01 1.30402e-01 -1.57902e-01 1.30402e-01 -1.35258e-01 2.45423e-01
-30.08840 18.09560 21.98834 1.01456e-01 -1.53731e-01 1.49857e-01 -1.53731e-01 1.49857e-01 1.01456e-01 2.37452e-01
-26.07430 18.09280 21.98834 1.10212e-01 -1.42054e-01 1.67001e-01 -1.42054e-01 1.67001e-01 1.10212e-01 2.45388e-01
-22.07510 18.06630 21.98834 -1.21724e-01 -1.47445e-01 1.39725e-01 -1.47445e-01 1.39725e-01 -1.21724e-01 2.36812e-01
-18.08200 18.07740 21.98834 1.19313e-01 -1.45155e-01 1.32369e-01 -1.45155e-01 1.32369e-01 1.19313e-01 2.29841e-01
-14.10030 17.91600 21.98834 9.67071e-02 -1.45266e-01 -1.45476e-01 -1.45266e-01 -1.45476e-01 9.67071e-02 2.27195e-01
-10.09340 17.93420 21.98834 -1.60782e-01 -1.33670e-01 -1.35675e-01 -1.33670e-01 -1.35675e-01 -1.60782e-01 2.49252e-01
-6.10070 17.92520 21.98834 -1.22823e-01 -1.37645e-01 -1.43462e-01 -1.37645e-01 -1.43462e-01 -1.22823e-01 2.33694e-01
-2.09700 17.92360 21.98834 1.35844e-01 -1.48199e-01 -1.39916e-01 -1.48199e-01 -1.39916e-01 1.35844e-01 2.44934e-01
1.90453 17.90500 21.98834 1.15649e-01 -1.43895e-01 -1.62539e-01 -1.43895e-01 -1.62539e-01 1.15649e-01 2.45967e-01
5.90570 17.92190 21.98834 1.04460e-01 -1.38809e-01 -1.40246e-01 -1.38809e-01 -1.40246e-01 1.04460e-01 2.23268e-01
9.91454 17.92960 21.98834 -1.59806e-01 -1.29957e-01 -1.22647e-01 -1.29957e-01 -1.22647e-01 -1.59806e-01 2.39727e-01
13.91920 18.08500 21.98834 -1.46842e-01 -1.29878e-01 1.52456e-01 -1.29878e-01 1.52456e-01 -1.46842e-01 2.48343e-01
17.89370 18.08500 21.98834 -1.60563e-01 -1.45460e-01 1.52556e-01 -1.45460e-01 1.52556e-01 -1.60563e-01 2.64976e-01
21.90540 18.09550 21.98834 -1.55547e-01 -1.47793e-01 1.63931e-01 -1.47793e-01 1.63931e-01 -1.55547e-01 2.70021e-01
25.90840 18.10740 21.98834 -1.40065e-01 -1.48254e-01 1.61597e-01 -1.48254e-01 1.61597e-01 -1.40065e-01 2.60214e-01
29.90940 18.11510 21.98834 -1.40802e-01 -1.50495e-01 1.48607e-01 -1.50495e-01 1.48607e-01 -1.40802e-01 2.54083e-01
33.89940 18.09820 21.98834 8.93437e-02 -1.52502e-01 1.35633e-01 -1.52502e-01 1.35633e-01 8.93437e-02 2.22790e-01
37.90140 17.91340 21.98834 -1.44526e-01 -1.47199e-01 -1.39013e-01 -1.47199e-01 -1.39013e-01 -1.44526e-01 2.48756e-01
41.90710 17.92770 21.98834 -1.41822e-01 -1.44795e-01 -1.30122e-01 -1.44795e-01 -1.30122e-01 -1.41822e-01 2.40855e-01
45.90280 18.07210 21.98834 1.29390e-01 -1.43156e-01 1.16298e-01 -1.43156e-01 1.16298e-01 1.29390e-01 2.25301e-01
49.90860 17.91820 21.98834 1.35115e-01 -1.37400e-01 -1.34391e-01 -1.37400e-01 -1.34391e-01 1.35115e-01 2.34938e-01
-42.09810 13.90180 21.98834 1.28467e-01 -1.28426e-01 -1.60451e-01 -1.28426e-01 -1.60451e-01 1.28467e-01 2.42367e-01
-38.09830 13.90880 21.98834 -1.33223e-01 -1.41447e-01 -1.47159e-01 -1.41447e-01 -1.47159e-01 -1.33223e-01 2.43744e-01
-34.09890 14.08420 21.98834 -1.51372e-01 -1.48971e-01 1.33723e-01 -1.48971e-01 1.33723e-01 -1.51372e-01 2.50974e-01
-30.09090 14.08400 21.98834 -1.09768e-01 -1.37988e-01 1.57203e-01 -1.37988e-01 1.57203e-01 -1.09768e-01 2.36226e-01
-26.08090 14.08040 21.98834 -1.14597e-01 -1.37145e-01 1.65737e-01 -1.37145e-01 1.65737e-01 -1.14597e-01 2.43742e-01
-22.06930 14.08630 21.98834 -1.45795e-01 -1.29104e-01 1.52941e-01 -1.29104e-01 1.52941e-01 -1.45795e-01 2.47618e-01
-18.07050 14.05800 21.98834 -1.27120e-01 -1.19689e-01 1.33823e-01 -1.19689e-01 1.33823e-01 -1.27120e-01 2.19985e-01
-14.07400 13.90310 21.98834 -1.32250e-01 -1.11161e-01 -1.30998e-01 -1.11161e-01 -1.30998e-01 -1.32250e-01 2.16812e-01
-10.07570 13.92110 21.98834 -1.66377e-01 -1.09479e-01 -1.46235e-01 -1.09479e-01 -1.46235e-01 -1.66377e-01 2.47086e-01
-6.07680 13.91320 21.98834 -1.60446e-01 -1.06960e-01 -1.35457e-01 -1.06960e-01 -1.35457e-01 -1.60446e-01 2.35652e-01
-2.07290 13.88190 21.98834 -1.38601e-01 -9.45960e-02 -1.51799e-01 -9.45960e-02 -1.51799e-01 -1.38601e-01 2.26278e-01
1.91727 13.88300 21.98834 1.28802e-01 -1.03214e-01 -1.57608e-01 -1.03214e-01 -1.57608e-01 1.28802e-01 2.28218e-01
5.92915 13.89670 21.98834 1.31562e-01 -1.05466e-01 -1.50546e-01 -1.05466e-01 -1.50546e-01 1.31562e-01 2.26044e-01
9.93238 13.89280 21.98834 -1.26922e-01 -1.12477e-01 -1.26625e-01 -1.12477e-01 -1.26625e-01 -1.26922e-01 2.11646e-01
13.92790 14.05750 21.98834 -1.41165e-01 -1.32035e-01 1.47597e-01 -1.32035e-01 1.47597e-01 -1.41165e-01 2.43198e-01
17.92500 14.08660 21.98834 -1.37676e-01 -1.42460e-01 1.68221e-01 -1.42460e-01 1.68221e-01 -1.37676e-01 2.59899e-01
21.92110 14.08610 21.98834 9.17742e-02 -1.40903e-01 1.70085e-01 -1.40903e-01 1.70085e-01 9.17742e-02 2.39175e-01
25.92110 14.08360 21.98834 -1.32335e-01 -1.31773e-01 1.67023e-01 -1.31773e-01 1.67023e-01 -1.32335e-01 2.50546e-01
29.93670 14.10170 21.98834 -1.42690e-01 -1.17090e-01 1.52390e-01 -1.17090e-01 1.52390e-01 -1.42690e-01 2.39360e-01
33.91820 14.07320 21.98834 9.63706e-02 -1.20537e-01 1.29263e-01 -1.20537e-01 1.29263e-01 9.63706e-02 2.01309e-01
37.91660 13.90230 21.98834 -1.39446e-01 -1.20186e-01 -1.37462e-01 -1.20186e-01 -1.37462e-01 -1.39446e-01 2.29751e-01
41.91870 13.90840 21.98834 -1.49936e-01 -1.19450e-01 -1.36479e-01 -1.19450e-01 -1.36479e-01 -1.49936e-01 2.35320e-01
45.91090 14.04850 21.98834 -1.38352e-01 -1.19359e-01 1.03921e-01 -1.19359e-01 1.03921e-01 -1.38352e-01 2.10208e-01
49.91060 13.89870 21.98834 1.33880e-01 -1.22680e-01 -1.44505e-01 -1.22680e-01 -1.44505e-01 1.33880e-01 2.32069e-01
-41.94190 9.86503 21.98834 7.27781e-02 1.44890e-01 -1.82718e-01 1.44890e-01 -1.82718e-01 7.27781e-02 2.44286e-01
-37.92690 9.89113 21.98834 -1.22375e-01 1.38162e-01 -1.45886e-01 1.38162e-01 -1.45886e-01 -1.22375e-01 2.35259e-01
-33.92840 10.05370 21.98834 -1.31162e-01 1.38877e-01 1.47398e-01 1.38877e-01 1.47398e-01 -1.31162e-01 2.41281e-01
-29.93380 10.07150 21.98834 -1.15611e-01 1.44919e-01 1.68394e-01 1.44919e-01 1.68394e-01 -1.15611e-01 2.50448e-01
-25.91920 10.06880 21.98834 1.19997e-01 1.44464e-01 1.61866e-01 1.44464e-01 1.61866e-01 1.19997e-01 2.47931e-01
-21.90660 10.06290 21.98834 1.39463e-01 1.40128e-01 1.42826e-01 1.40128e-01 1.42826e-01 1.39463e-01 2.43896e-01
-17.91890 10.05370 21.98834 1.31242e-01 1.19395e-01 1.31525e-01 1.19395e-01 1.31525e-01 1.31242e-01 2.20858e-01
-13.93200 9.90548 21.98834 -1.49630e-01 1.12269e-01 -1.23535e-01 1.12269e-01 -1.23535e-01 -1.49630e-01 2.24174e-01
-9.94470 9.89285 21.98834 -1.56029e-01 1.22946e-01 -1.51817e-01 1.22946e-01 -1.51817e-01 -1.56029e-01 2.50018e-01
-5.95220 9.87918 21.98834 -1.72406e-01 1.36805e-01 -1.33048e-01 1.36805e-01 -1.33048e-01 -1.72406e-01 2.57180e-01
-1.94050 9.85512 21.98834 -1.39749e-01 1.46363e-01 -1.54283e-01 1.46363e-01 -1.54283e-01 -1.39749e-01 2.54470e-01
2.08048 9.87801 21.98834 -9.48606e-02 1.51115e-01 -1.59172e-01 1.51115e-01 -1.59172e-01 -9.48606e-02 2.39102e-01
6.06776 9.87049 21.98834 1.29688e-01 1.40140e-01 -1.51023e-01 1.40140e-01 -1.51023e-01 1.29688e-01 2.43446e-01
10.06960 9.87022 21.98834 -1.26490e-01 1.41277e-01 -1.21768e-01 1.41277e-01 -1.21768e-01 -1.26490e-01 2.25358e-01
14.08330 10.04280 21.98834 -1.50640e-01 1.36518e-01 1.62159e-01 1.36518e-01 1.62159e-01 -1.50640e-01 2.60048e-01
18.09920 10.05920 21.98834 -1.14816e-01 1.30914e-01 1.76620e-01 1.30914e-01 1.76620e-01 -1.14816e-01 2.48024e-01
22.08480 10.06040 21.98834 1.25107e-01 1.19933e-01 1.65890e-01 1.19933e-01 1.65890e-01 1.25107e-01 2.39907e-01
26.08450 10.04800 21.98834 -1.46008e-01 1.10934e-01 1.55411e-01 1.10934e-01 1.55411e-01 -1.46008e-01 2.40369e-01
30.05800 10.05860 21.98834 -1.44719e-01 1.05738e-01 1.48068e-01 1.05738e-01 1.48068e-01 -1.44719e-01 2.32482e-01
34.04340 10.06310 21.98834 -1.49232e-01 1.05868e-01 1.22150e-01 1.05868e-01 1.22150e-01 -1.49232e-01 2.19998e-01
38.05520 9.89784 21.98834 -1.54358e-01 1.20763e-01 -1.39014e-01 1.20763e-01 -1.39014e-01 -1.54358e-01 2.40281e-01
42.05720 9.88867 21.98834 -1.41161e-01 1.36062e-01 -1.37277e-01 1.36062e-01 -1.37277e-01 -1.41161e-01 2.39341e-01
46.06880 10.04250 21.98834 -1.54237e-01 1.45996e-01 1.08831e-01 1.45996e-01 1.08831e-01 -1.54237e-01 2.38639e-01
50.06810 9.87524 21.98834 -1.15018e-01 1.49578e-01 -1.43503e-01 1.49578e-01 -1.43503e-01 -1.15018e-01 2.37057e-01
-41.93040 5.85183 21.98834 -1.29383e-01 1.43770e-01 -1.74316e-01 1.43770e-01 -1.74316e-01 -1.29383e-01 2.60376e-01
-37.92430 5.84965 21.98834 1.04051e-01 1.47330e-01 -1.56388e-01 1.47330e-01 -1.56388e-01 1.04051e-01 2.38725e-01
-33.93150 6.03492 21.98834 -9.95236e-02 1.47041e-01 1.58869e-01 1.47041e-01 1.58869e-01 -9.95236e-02 2.38255e-01
-29.93770 6.03648 21.98834 9.74760e-02 1.43909e-01 1.67822e-01 1.43909e-01 1.67822e-01 9.74760e-02 2.41610e-01
-25.94090 6.05136 21.98834 1.34409e-01 1.44688e-01 1.62179e-01 1.44688e-01 1.62179e-01 1.34409e-01 2.55544e-01
-21.94180 6.07299 21.98834 1.55961e-01 1.48633e-01 1.42611e-01 1.48633e-01 1.42611e-01 1.55961e-01 2.58368e-01
-17.91710 6.05423 21.98834 1.30218e-01 1.59569e-01 1.12113e-01 1.59569e-01 1.12113e-01 1.30218e-01 2.34496e-01
-13.91860 5.88971 21.98834 -1.40794e-01 1.47085e-01 -1.34238e-01 1.47085e-01 -1.34238e-01 -1.40794e-01 2.43879e-01
-9.93750 5.87857 21.98834 -1.55534e-01 1.44710e-01 -1.46340e-01 1.44710e-01 -1.46340e-01 -1.55534e-01 2.57967e-01
-5.93050 5.86693 21.98834 -1.62999e-01 1.50587e-01 -1.31627e-01 1.50587e-01 -1.31627e-01 -1.62999e-01 2.58013e-01
-1.91930 5.85031 21.98834 -1.38802e-01 1.46843e-01 -1.45162e-01 1.46843e-01 -1.45162e-01 -1.38802e-01 2.48798e-01
2.08867 5.84555 21.98834 1.23125e-01 1.48167e-01 -1.66885e-01 1.48167e-01 -1.66885e-01 1.23125e-01 2.54880e-01
6.06865 5.84977 21.98834 1.49662e-01 1.47069e-01 -1.56402e-01 1.47069e-01 -1.56402e-01 1.49662e-01 2.61705e-01
10.07410 5.85762 21.98834 1.18570e-01 1.53823e-01 -1.11578e-01 1.53823e-01 -1.11578e-01 1.18570e-01 2.23987e-01
14.08200 6.02017 21.98834 -1.34089e-01 1.54092e-01 1.52513e-01 1.54092e-01 1.52513e-01 -1.34089e-01 2.54920e-01
18.08750 6.04481 21.98834 -1.26179e-01 1.40550e-01 1.69235e-01 1.40550e-01 1.69235e-01 -1.26179e-01 2.53606e-01
22.08470 6.05350 21.98834 1.18851e-01 1.34535e-01 1.68186e-01 1.34535e-01 1.68186e-01 1.18851e-01 2.45992e-01
26.07510 6.04564 21.98834 -1.23092e-01 1.25911e-01 1.48956e-01 1.25911e-01 1.48956e-01 -1.23092e-01 2.30637e-01
30.08220 6.04468 21.98834 1.27409e-01 1.40153e-01 1.45126e-01 1.40153e-01 1.45126e-01 1.27409e-01 2.38616e-01
34.09450 6.05107 21.98834 -1.41751e-01 1.52340e-01 1.21881e-01 1.52340e-01 1.21881e-01 -1.41751e-01 2.41155e-01
38.08160 5.88720 21.98834 -1.53059e-01 1.45556e-01 -1.31887e-01 1.45556e-01 -1.31887e-01 -1.53059e-01 2.49013e-01
42.08110 5.87625 21.98834 -1.51800e-01 1.42968e-01 -1.31177e-01 1.42968e-01 -1.31177e-01 -1.51800e-01 2.46354e-01
46.07540 6.03855 21.98834 -1.51527e-01 1.51646e-01 1.30952e-01 1.51646e-01 1.30952e-01 -1.51527e-01 2.51208e-01
50.08820 5.87603 21.98834 -1.30571e-01 1.55592e-01 -1.36926e-01 1.55592e-01 -1.36926e-01 -1.30571e-01 2.44963e-01
-41.91310 1.82695 21.98834 -1.16875e-01 1.57540e-01 -1.57746e-01 1.57540e-01 -1.57746e-01 -1.16875e-01 2.51719e-01
-37.91950 1.81947 21.98834 9.37156e-02 1.56650e-01 -1.48348e-01 1.56650e-01 -1.48348e-01 9.37156e-02 2.35221e-01
-33.91650 1.98985 21.98834 1.04583e-01 1.56049e-01 1.44326e-01 1.56049e-01 1.44326e-01 1.04583e-01 2.36894e-01
-29.93060 2.02601 21.98834 -9.92929e-02 1.47143e-01 1.83777e-01 1.47143e-01 1.83777e-01 -9.92929e-02 2.55507e-01
-25.93110 2.06343 21.98834 1.19639e-01 1.40619e-01 1.77730e-01 1.40619e-01 1.77730e-01 1.19639e-01 2.56272e-01
-21.94280 2.07456 21.98834 1.61535e-01 1.39160e-01 1.51332e-01 1.39160e-01 1.51332e-01 1.61535e-01 2.61458e-01
-17.93500 2.05815 21.98834 1.71068e-01 1.47879e-01 1.15491e-01 1.47879e-01 1.15491e-01 1.71068e-01 2.53911e-01
-13.93970 1.88520 21.98834 1.34042e-01 1.48943e-01 -1.26031e-01 1.48943e-01 -1.26031e-01 1.34042e-01 2.36717e-01
-9.92800 1.87199 21.98834 -1.50603e-01 1.51164e-01 -1.38372e-01 1.51164e-01 -1.38372e-01 -1.50603e-01 2.54320e-01
-5.92380 1.86542 21.98834 -1.67314e-01 1.49474e-01 -1.35780e-01 1.49474e-01 -1.35780e-01 -1.67314e-01 2.62245e-01
-1.91160 1.85380 21.98834 -1.31284e-01 1.56294e-01 -1.40647e-01 1.56294e-01 -1.40647e-01 -1.31284e-01 2.47881e-01
2.09458 1.83580 21.98834 1.08181e-01 1.56716e-01 -1.50257e-01 1.56716e-01 -1.50257e-01 1.08181e-01 2.42570e-01
6.07874 1.82802 21.98834 -1.07885e-01 1.61527e-01 -1.43184e-01 1.61527e-01 -1.43184e-01 -1.07885e-01 2.41313e-01
10.07140 1.85000 21.98834 1.17915e-01 1.56780e-01 -1.06334e-01 1.56780e-01 -1.06334e-01 1.17915e-01 2.23138e-01
14.08280 2.01294 21.98834 -1.39507e-01 1.56366e-01 1.47785e-01 1.56366e-01 1.47785e-01 -1.39507e-01 2.56424e-01
18.08290 2.02800 21.98834 -1.16740e-01 1.49136e-01 1.65004e-01 1.49136e-01 1.65004e-01 -1.16740e-01 2.51189e-01
22.07110 2.05344 21.98834 1.37381e-01 1.44702e-01 1.70730e-01 1.44702e-01 1.70730e-01 1.37381e-01 2.62604e-01
26.07280 2.04761 21.98834 1.46465e-01 1.49941e-01 1.63035e-01 1.49941e-01 1.63035e-01 1.46465e-01 2.65546e-01
30.08260 2.03189 21.98834 1.20033e-01 1.55871e-01 1.48995e-01 1.55871e-01 1.48995e-01 1.20033e-01 2.46785e-01
34.09570 2.03132 21.98834 -1.40692e-01 1.53732e-01 1.02554e-01 1.53732e-01 1.02554e-01 -1.40692e-01 2.32261e-01
38.09400 1.88036 21.98834 -1.57567e-01 1.53904e-01 -1.34692e-01 1.53904e-01 -1.34692e-01 -1.57567e-01 2.58178e-01
42.09540 1.86384 21.98834 -1.53204e-01 1.58213e-01 -1.24057e-01 1.58213e-01 -1.24057e-01 -1.53204e-01 2.52770e-01
46.09790 2.00030 21.98834 -1.59391e-01 1.52032e-01 1.25437e-01 1.52032e-01 1.25437e-01 -1.59391e-01 2.53483e-01
50.08140 1.84321 21.98834 -1.45938e-01 1.43628e-01 -1.33829e-01 1.43628e-01 -1.33829e-01 -1.45938e-01 2.44616e-01
-41.93310 -2.19559 21.98834 -1.36436e-01 1.38540e-01 -1.58858e-01 1.38540e-01 -1.58858e-01 -1.36436e-01 2.51085e-01
-37.92330 -2.18629 21.98834 -1.10965e-01 1.49329e-01 -1.32183e-01 1.49329e-01 -1.32183e-01 -1.10965e-01 2.28221e-01
-33.93050 -2.03029 21.98834 -1.07402e-01 1.44182e-01 1.34372e-01 1.44182e-01 1.34372e-01 -1.07402e-01 2.24454e-01
-29.92900 -1.99499 21.98834 -1.11332e-01 1.39904e-01 1.73514e-01 1.39904e-01 1.73514e-01 -1.11332e-01 2.49148e-01
-25.94510 -1.97259 21.98834 1.30144e-01 1.29301e-01 1.68483e-01 1.29301e-01 1.68483e-01 1.30144e-01 2.49083e-01
-21.94530 -1.94099 21.98834 1.44667e-01 1.43463e-01 1.59067e-01 1.43463e-01 1.59067e-01 1.44667e-01 2.58481e-01
-17.95070 -1.93839 21.98834 1.39697e-01 1.48987e-01 1.31510e-01 1.48987e-01 1.31510e-01 1.39697e-01 2.42914e-01
-13.93780 -2.10299 21.98834 -1.28677e-01 1.59283e-01 -1.15657e-01 1.59283e-01 -1.15657e-01 -1.28677e-01 2.35171e-01
-9.92070 -2.11739 21.98834 -1.65676e-01 1.67093e-01 -1.21720e-01 1.67093e-01 -1.21720e-01 -1.65676e-01 2.64923e-01
-5.91040 -2.14239 21.98834 -1.41366e-01 1.67327e-01 -1.42506e-01 1.67327e-01 -1.42506e-01 -1.41366e-01 2.61326e-01
-1.91730 -2.15399 21.98834 -1.31608e-01 1.54869e-01 -1.37892e-01 1.54869e-01 -1.37892e-01 -1.31608e-01 2.45600e-01
2.08641 -2.15899 21.98834 1.18768e-01 1.50390e-01 -1.38704e-01 1.50390e-01 -1.38704e-01 1.18768e-01 2.36563e-01
6.07740 -2.16649 21.98834 -1.50953e-01 1.52364e-01 -1.28368e-01 1.52364e-01 -1.28368e-01 -1.50953e-01 2.49960e-01
10.07190 -2.15909 21.98834 -1.44403e-01 1.51890e-01 -1.01631e-01 1.51890e-01 -1.01631e-01 -1.44403e-01 2.32920e-01
14.07970 -2.01139 21.98834 7.76652e-02 1.53946e-01 1.43321e-01 1.53946e-01 1.43321e-01 7.76652e-02 2.24215e-01
18.07550 -1.98739 21.98834 -1.11689e-01 1.53452e-01 1.68028e-01 1.53452e-01 1.68028e-01 -1.11689e-01 2.53486e-01
22.05260 -1.96379 21.98834 8.87212e-02 1.34727e-01 1.72443e-01 1.34727e-01 1.72443e-01 8.87212e-02 2.36134e-01
26.06000 -1.96329 21.98834 1.05864e-01 1.45828e-01 1.66534e-01 1.45828e-01 1.66534e-01 1.05864e-01 2.45370e-01
30.08900 -1.96979 21.98834 1.14863e-01 1.63255e-01 1.42495e-01 1.63255e-01 1.42495e-01 1.14863e-01 2.45256e-01
34.10320 -1.97149 21.98834 -1.35636e-01 1.72996e-01 1.06627e-01 1.72996e-01 1.06627e-01 -1.35636e-01 2.44324e-01
38.10420 -2.13639 21.98834 -1.50736e-01 1.74510e-01 -1.36322e-01 1.74510e-01 -1.36322e-01 -1.50736e-01 2.67878e-01
42.10250 -2.15389 21.98834 -1.46394e-01 1.65279e-01 -1.24899e-01 1.65279e-01 -1.24899e-01 -1.46394e-01 2.53669e-01
46.10700 -2.01539 21.98834 -1.52398e-01 1.59573e-01 1.13947e-01 1.59573e-01 1.13947e-01 -1.52398e-01 2.48340e-01
50.08320 -2.17519 21.98834 -1.41983e-01 1.44074e-01 -1.29209e-01 1.44074e-01 -1.29209e-01 -1.41983e-01 2.40024e-01
-41.91290 -6.21399 21.98834 1.22116e-01 1.59347e-01 -1.56016e-01 1.59347e-01 -1.56016e-01 1.22116e-01 2.54254e-01
-37.90830 -6.20449 21.98834 1.30392e-01 1.55205e-01 -1.29872e-01 1.55205e-01 -1.29872e-01 1.30392e-01 2.40743e-01
-33.91920 -6.05119 21.98834 1.34322e-01 1.40645e-01 1.24617e-01 1.40645e-01 1.24617e-01 1.34322e-01 2.30983e-01
-29.92100 -6.01799 21.98834 1.32039e-01 1.31943e-01 1.60805e-01 1.31943e-01 1.60805e-01 1.32039e-01 2.46377e-01
-25.95020 -5.99969 21.98834 1.49148e-01 1.18685e-01 1.58470e-01 1.18685e-01 1.58470e-01 1.49148e-01 2.47879e-01
-21.96070 -5.97109 21.98834 1.41349e-01 1.23170e-01 1.60773e-01 1.23170e-01 1.60773e-01 1.41349e-01 2.46978e-01
-17.96080 -5.94949 21.98834 -1.27484e-01 1.34516e-01 1.49312e-01 1.34516e-01 1.49312e-01 -1.27484e-01 2.37993e-01
-13.95060 -6.11759 21.98834 -1.47087e-01 1.41253e-01 -1.28421e-01 1.41253e-01 -1.28421e-01 -1.47087e-01 2.40996e-01
-9.93690 -6.13509 21.98834 -1.55345e-01 1.43596e-01 -1.29598e-01 1.43596e-01 -1.29598e-01 -1.55345e-01 2.48087e-01
-5.94020 -6.18719 21.98834 -1.36142e-01 1.35664e-01 -1.48764e-01 1.35664e-01 -1.48764e-01 -1.36142e-01 2.43043e-01
-1.93170 -6.17979 21.98834 1.07395e-01 1.37890e-01 -1.50483e-01 1.37890e-01 -1.50483e-01 1.07395e-01 2.30635e-01
2.07473 -6.17359 21.98834 1.37511e-01 1.36370e-01 -1.42847e-01 1.36370e-01 -1.42847e-01 1.37511e-01 2.40648e-01
6.04880 -6.17139 21.98834 -1.27732e-01 1.30614e-01 -1.35051e-01 1.30614e-01 -1.35051e-01 -1.27732e-01 2.27187e-01
10.05160 -6.18269 21.98834 -1.55188e-01 1.34533e-01 -1.11244e-01 1.34533e-01 -1.11244e-01 -1.55188e-01 2.33576e-01
14.04940 -6.01869 21.98834 -1.45295e-01 1.37076e-01 1.47152e-01 1.37076e-01 1.47152e-01 -1.45295e-01 2.48101e-01
18.05910 -5.99279 21.98834 8.68906e-02 1.52207e-01 1.72993e-01 1.52207e-01 1.72993e-01 8.68906e-02 2.46259e-01
22.06130 -5.99899 21.98834 -1.09887e-01 1.51631e-01 1.60082e-01 1.51631e-01 1.60082e-01 -1.09887e-01 2.46361e-01
26.06150 -5.98479 21.98834 -1.24194e-01 1.40776e-01 1.67242e-01 1.40776e-01 1.67242e-01 -1.24194e-01 2.51420e-01
30.07270 -5.97329 21.98834 -1.34796e-01 1.42238e-01 1.41106e-01 1.42238e-01 1.41106e-01 -1.34796e-01 2.41480e-01
34.07450 -5.97919 21.98834 -1.60806e-01 1.44170e-01 1.18016e-01 1.44170e-01 1.18016e-01 -1.60806e-01 2.46112e-01
38.06590 -6.15269 21.98834 -1.56832e-01 1.37877e-01 -1.37890e-01 1.37877e-01 -1.37890e-01 -1.56832e-01 2.50240e-01
42.07430 -6.18199 21.98834 -1.49227e-01 1.40553e-01 -1.43845e-01 1.40553e-01 -1.43845e-01 -1.49227e-01 2.50430e-01
46.08430 -6.04619 21.98834 -1.51652e-01 1.43648e-01 1.04033e-01 1.43648e-01 1.04033e-01 -1.51652e-01 2.33358e-01
50.08720 -6.20059 21.98834 -1.27890e-01 1.51584e-01 -1.24785e-01 1.51584e-01 -1.24785e-01 -1.27890e-01 2.34318e-01
-41.92240 -10.22489 21.98834 1.48455e-01 1.16237e-01 -1.48777e-01 1.16237e-01 -1.48777e-01 1.48455e-01 2.40177e-01
-37.92460 -10.20699 21.98834 1.43925e-01 1.08303e-01 -1.29614e-01 1.08303e-01 -1.29614e-01 1.43925e-01 2.21909e-01
-33.94170 -10.06019 21.98834 1.49984e-01 9.77446e-02 1.22356e-01 9.77446e-02 1.22356e-01 1.49984e-01 2.16841e-01
-29.93710 -10.03529 21.98834 1.35673e-01 1.11154e-01 1.60397e-01 1.11154e-01 1.60397e-01 1.35673e-01 2.37675e-01
-25.93510 -10.01219 21.98834 1.55689e-01 1.23877e-01 1.67442e-01 1.23877e-01 1.67442e-01 1.55689e-01 2.60041e-01
-21.95180 -9.98679 21.98834 1.36100e-01 1.24798e-01 1.75750e-01 1.24798e-01 1.75750e-01 1.36100e-01 2.54923e-01
-17.96560 -9.99909 21.98834 -1.25681e-01 1.19335e-01 1.42481e-01 1.19335e-01 1.42481e-01 -1.25681e-01 2.24360e-01
-13.95040 -10.13739 21.98834 -1.47888e-01 1.26756e-01 -1.30511e-01 1.26756e-01 -1.30511e-01 -1.47888e-01 2.34459e-01
-9.94090 -10.15529 21.98834 -1.41695e-01 1.26475e-01 -1.48102e-01 1.26475e-01 -1.48102e-01 -1.41695e-01 2.40847e-01
-5.94860 -10.19199 21.98834 -1.38401e-01 1.17715e-01 -1.48417e-01 1.17715e-01 -1.48417e-01 -1.38401e-01 2.34604e-01
-1.93590 -10.18989 21.98834 -1.35136e-01 1.17639e-01 -1.49687e-01 1.17639e-01 -1.49687e-01 -1.35136e-01 2.33468e-01
2.05911 -10.17759 21.98834 -1.19924e-01 1.12814e-01 -1.34782e-01 1.12814e-01 -1.34782e-01 -1.19924e-01 2.12780e-01
6.05301 -10.18179 21.98834 1.43473e-01 1.09733e-01 -1.45181e-01 1.09733e-01 -1.45181e-01 1.43473e-01 2.31739e-01
10.04210 -10.19079 21.98834 1.33053e-01 1.03460e-01 -1.18842e-01 1.03460e-01 -1.18842e-01 1.33053e-01 2.06229e-01
14.04300 -10.01619 21.98834 -1.29879e-01 1.04173e-01 1.59052e-01 1.04173e-01 1.59052e-01 -1.29879e-01 2.30257e-01
18.03520 -10.00099 21.98834 -1.39061e-01 1.12821e-01 1.76735e-01 1.12821e-01 1.76735e-01 -1.39061e-01 2.51598e-01
22.02780 -10.00979 21.98834 -1.35848e-01 1.24485e-01 1.67282e-01 1.24485e-01 1.67282e-01 -1.35848e-01 2.48866e-01
26.03820 -9.99899 21.98834 -1.44392e-01 1.24053e-01 1.60384e-01 1.24053e-01 1.60384e-01 -1.44392e-01 2.48920e-01
30.03910 -9.99229 21.98834 -1.48883e-01 1.15047e-01 1.34760e-01 1.15047e-01 1.34760e-01 -1.48883e-01 2.31435e-01
34.04260 -10.00459 21.98834 -1.66890e-01 1.14169e-01 1.21632e-01 1.14169e-01 1.21632e-01 -1.66890e-01 2.35969e-01
38.04080 -10.17859 21.98834 -1.57142e-01 1.00328e-01 -1.53488e-01 1.00328e-01 -1.53488e-01 -1.57142e-01 2.41491e-01
42.06180 -10.20199 21.98834 -1.56548e-01 1.00878e-01 -1.46199e-01 1.00878e-01 -1.46199e-01 -1.56548e-01 2.36765e-01
46.06200 -10.04879 21.98834 -1.69082e-01 1.08053e-01 1.13416e-01 1.08053e-01 1.13416e-01 -1.69082e-01 2.30494e-01
50.07180 -10.19599 21.98834 -1.47720e-01 1.17833e-01 -1.17278e-01 1.17833e-01 -1.17278e-01 -1.47720e-01 2.22396e-01
-42.06550 -14.22519 21.98834 1.17729e-01 -1.12403e-01 -1.44396e-01 -1.12403e-01 -1.44396e-01 1.17729e-01 2.17588e-01
-38.07690 -14.20979 21.98834 1.21894e-01 -1.23780e-01 -1.35151e-01 -1.23780e-01 -1.35151e-01 1.21894e-01 2.20103e-01
-34.07220 -14.05979 21.98834 -1.01849e-01 -1.22360e-01 1.27807e-01 -1.22360e-01 1.27807e-01 -1.01849e-01 2.04156e-01
-30.05940 -14.04629 21.98834 1.34334e-01 -9.63924e-02 1.67824e-01 -9.63924e-02 1.67824e-01 1.34334e-01 2.35589e-01
-26.05880 -14.03799 21.98834 1.53756e-01 -7.76668e-02 1.74918e-01 -7.76668e-02 1.74918e-01 1.53756e-01 2.45498e-01
-22.07360 -14.02709 21.98834 1.23602e-01 -8.76078e-02 1.69364e-01 -8.76078e-02 1.69364e-01 1.23602e-01 2.27237e-01
-18.09960 -14.03459 21.98834 -1.51440e-01 -1.07230e-01 1.42028e-01 -1.07230e-01 1.42028e-01 -1.51440e-01 2.33676e-01
-14.10230 -14.19789 21.98834 -1.45639e-01 -1.14289e-01 -1.43223e-01 -1.14289e-01 -1.43223e-01 -1.45639e-01 2.34064e-01
-10.09220 -14.20019 21.98834 -1.52718e-01 -1.16768e-01 -1.46748e-01 -1.16768e-01 -1.46748e-01 -1.52718e-01 2.41852e-01
-6.10780 -14.20419 21.98834 9.95507e-02 -1.38795e-01 -1.48932e-01 -1.38795e-01 -1.48932e-01 9.95507e-02 2.26617e-01
-2.09280 -14.19909 21.98834 -1.13719e-01 -1.37440e-01 -1.45121e-01 -1.37440e-01 -1.45121e-01 -1.13719e-01 2.29960e-01
1.93287 -14.19259 21.98834 1.37639e-01 -1.22647e-01 -1.43561e-01 -1.22647e-01 -1.43561e-01 1.37639e-01 2.33659e-01
5.93446 -14.19589 21.98834 1.33046e-01 -1.02666e-01 -1.32587e-01 -1.02666e-01 -1.32587e-01 1.33046e-01 2.14058e-01
9.91372 -14.19669 21.98834 -1.18100e-01 -1.09237e-01 -1.28402e-01 -1.09237e-01 -1.28402e-01 -1.18100e-01 2.05834e-01
13.91630 -14.02139 21.98834 1.25177e-01 -1.08172e-01 1.66553e-01 -1.08172e-01 1.66553e-01 1.25177e-01 2.34756e-01
17.91280 -14.02069 21.98834 1.00540e-01 -1.03883e-01 1.78328e-01 -1.03883e-01 1.78328e-01 1.00540e-01 2.29567e-01
21.87300 -14.01919 21.98834 -1.19656e-01 -1.20514e-01 1.67784e-01 -1.20514e-01 1.67784e-01 -1.19656e-01 2.38731e-01
25.88070 -14.00859 21.98834 8.06226e-02 -1.37405e-01 1.70742e-01 -1.37405e-01 1.70742e-01 8.06226e-02 2.33523e-01
29.89550 -14.00969 21.98834 5.94631e-02 -1.31991e-01 1.46817e-01 -1.31991e-01 1.46817e-01 5.94631e-02 2.06186e-01
33.88830 -14.03479 21.98834 -1.23489e-01 -1.34602e-01 1.17710e-01 -1.34602e-01 1.17710e-01 -1.23489e-01 2.17308e-01
37.90690 -14.19989 21.98834 -1.55164e-01 -1.27850e-01 -1.48920e-01 -1.27850e-01 -1.48920e-01 -1.55164e-01 2.50197e-01
41.89580 -14.21319 21.98834 -1.43307e-01 -1.28049e-01 -1.41703e-01 -1.28049e-01 -1.41703e-01 -1.43307e-01 2.38774e-01
45.89850 -14.06719 21.98834 -1.53135e-01 -1.34761e-01 1.16591e-01 -1.34761e-01 1.16591e-01 -1.53135e-01 2.34956e-01
49.92460 -14.22009 21.98834 -1.50333e-01 -1.21276e-01 -1.18879e-01 -1.21276e-01 -1.18879e-01 -1.50333e-01 2.26804e-01
ZONE T="YZ_mid_T1.500_C21.988_TS10000", I=24, J=10, K=1, DATAPACKING=POINT, STRANDID=1, SOLUTIONTIME=10000.000000
-42.09720 21.92980 21.98834 -1.14629e-01 -1.24703e-01 -1.64562e-01 -1.24703e-01 -1.64562e-01 -1.14629e-01 2.36159e-01
-38.09630 21.94180 21.98834 -1.48313e-01 -1.15499e-01 -1.35102e-01 -1.15499e-01 -1.35102e-01 -1.48313e-01 2.31494e-01
-34.09720 22.10580 21.98834 -1.39950e-01 -1.33442e-01 1.48016e-01 -1.33442e-01 1.48016e-01 -1.39950e-01 2.43519e-01
-30.09990 22.09520 21.98834 1.59445e-01 -1.45344e-01 1.53844e-01 -1.45344e-01 1.53844e-01 1.59445e-01 2.64982e-01
-26.08200 22.09690 21.98834 1.36009e-01 -1.29714e-01 1.66642e-01 -1.29714e-01 1.66642e-01 1.36009e-01 2.51185e-01
-22.07920 22.08650 21.98834 -1.21529e-01 -1.25827e-01 1.58204e-01 -1.25827e-01 1.58204e-01 -1.21529e-01 2.35861e-01
-18.08100 22.08490 21.98834 -1.47685e-01 -1.35024e-01 1.16499e-01 -1.35024e-01 1.16499e-01 -1.47685e-01 2.31548e-01
-14.09770 21.94870 21.98834 -1.45031e-01 -1.47833e-01 -1.21707e-01 -1.47833e-01 -1.21707e-01 -1.45031e-01 2.40211e-01
-10.09440 21.95370 21.98834 -1.20049e-01 -1.56284e-01 -1.32428e-01 -1.56284e-01 -1.32428e-01 -1.20049e-01 2.37431e-01
-6.08430 21.95010 21.98834 1.40035e-01 -1.48217e-01 -1.25081e-01 -1.48217e-01 -1.25081e-01 1.40035e-01 2.39214e-01
-2.09220 21.95060 21.98834 1.59226e-01 -1.21959e-01 -1.48598e-01 -1.21959e-01 -1.48598e-01 1.59226e-01 2.49616e-01
1.91801 21.94200 21.98834 1.38245e-01 -1.14940e-01 -1.48312e-01 -1.14940e-01 -1.48312e-01 1.38245e-01 2.33066e-01
5.90964 21.95140 21.98834 -1.10215e-01 -1.14939e-01 -1.38788e-01 -1.14939e-01 -1.38788e-01 -1.10215e-01 2.11236e-01
9.90748 21.94130 21.98834 -1.46869e-01 -1.28755e-01 -1.17682e-01 -1.28755e-01 -1.17682e-01 -1.46869e-01 2.28030e-01
13.90840 22.11110 21.98834 -1.45017e-01 -1.39844e-01 1.50815e-01 -1.39844e-01 1.50815e-01 -1.45017e-01 2.51657e-01
17.90030 22.10590 21.98834 -1.34320e-01 -1.40898e-01 1.67716e-01 -1.40898e-01 1.67716e-01 -1.34320e-01 2.56949e-01
21.89780 22.12170 21.98834 -1.55718e-01 -1.35419e-01 1.49414e-01 -1.35419e-01 1.49414e-01 -1.55718e-01 2.54776e-01
25.89960 22.12810 21.98834 -1.46015e-01 -1.24891e-01 1.52873e-01 -1.24891e-01 1.52873e-01 -1.46015e-01 2.45537e-01
29.89280 22.13670 21.98834 -1.30212e-01 -1.31774e-01 1.41675e-01 -1.31774e-01 1.41675e-01 -1.30212e-01 2.33219e-01