VARIABLES= "X" "Y" "Zsec" "Px" "Py" "Pz" "U" "V" "W" "Pmag"
ZONE T="XY_mid_T1.500_C17.998_TS0", I=24, J=10, K=1, DATAPACKING=POINT, STRANDID=1, SOLUTIONTIME=0.000000
-13.98728 49.90570 17.99822 1.43899e-01 -1.50327e-01 -1.50616e-01 1.43899e-01 -1.50327e-01 -1.50616e-01 2.56886e-01
-13.96438 45.90600 17.99822 1.27328e-01 -1.45063e-01 -1.50697e-01 1.27328e-01 -1.45063e-01 -1.50697e-01 2.44878e-01
-14.14078 41.91760 17.99822 -1.38016e-01 -1.25391e-01 -1.63709e-01 -1.38016e-01 -1.25391e-01 -1.63709e-01 2.48137e-01
-14.15608 37.92900 17.99822 -1.39413e-01 -1.25377e-01 -1.54004e-01 -1.39413e-01 -1.25377e-01 -1.54004e-01 2.42637e-01
-14.00108 33.92050 17.99822 9.43314e-02 -1.31895e-01 1.57947e-01 9.43314e-02 -1.31895e-01 1.57947e-01 2.26367e-01
-14.13778 29.92110 17.99822 -1.38941e-01 -1.27367e-01 1.64695e-01 -1.38941e-01 -1.27367e-01 1.64695e-01 2.50303e-01
-14.15448 25.93230 17.99822 -1.52995e-01 -1.34266e-01 1.65970e-01 -1.52995e-01 -1.34266e-01 1.65970e-01 2.62642e-01
-14.14158 21.92670 17.99822 -1.50678e-01 -1.43091e-01 1.64567e-01 -1.50678e-01 -1.43091e-01 1.64567e-01 2.65068e-01
-14.14208 17.91800 17.99822 -1.53975e-01 -1.41965e-01 1.55555e-01 -1.53975e-01 -1.41965e-01 1.55555e-01 2.60883e-01
-14.14508 13.93000 17.99822 -1.45625e-01 -1.33961e-01 1.72891e-01 -1.45625e-01 -1.33961e-01 1.72891e-01 2.62761e-01
-14.16038 9.91782 17.99822 -1.60409e-01 -1.37426e-01 1.45890e-01 -1.60409e-01 -1.37426e-01 1.45890e-01 2.56712e-01
-14.00568 5.89579 17.99822 1.06357e-01 -1.47566e-01 -1.62882e-01 1.06357e-01 -1.47566e-01 -1.62882e-01 2.44168e-01
-14.01128 1.89085 17.99822 1.25207e-01 -1.47967e-01 -1.58444e-01 1.25207e-01 -1.47967e-01 -1.58444e-01 2.50351e-01
-13.97008 -2.09260 17.99822 1.35678e-01 -1.35392e-01 -1.46760e-01 1.35678e-01 -1.35392e-01 -1.46760e-01 2.41408e-01
-14.14908 -6.08970 17.99822 -1.31747e-01 -1.39535e-01 -1.24984e-01 -1.31747e-01 -1.39535e-01 -1.24984e-01 2.29016e-01
-14.16688 -10.09390 17.99822 -1.62501e-01 -1.45646e-01 1.18951e-01 -1.62501e-01 -1.45646e-01 1.18951e-01 2.48533e-01
-13.98808 -14.09010 17.99822 1.02077e-01 -1.39453e-01 1.38026e-01 1.02077e-01 -1.39453e-01 1.38026e-01 2.21175e-01
-13.97738 -18.07430 17.99822 1.04934e-01 -1.44507e-01 -1.15166e-01 1.04934e-01 -1.44507e-01 -1.15166e-01 2.12501e-01
-14.13598 -22.06450 17.99822 -1.27100e-01 -1.56765e-01 -1.10997e-01 -1.27100e-01 -1.56765e-01 -1.10997e-01 2.30326e-01
-13.99568 -26.07620 17.99822 1.24674e-01 -1.56684e-01 1.55233e-01 1.24674e-01 -1.56684e-01 1.55233e-01 2.53359e-01
-14.00698 -30.09760 17.99822 9.00074e-02 -1.59435e-01 1.68270e-01 9.00074e-02 -1.59435e-01 1.68270e-01 2.48668e-01
-14.14718 -34.10230 17.99822 -1.26900e-01 -1.56034e-01 1.60574e-01 -1.26900e-01 -1.56034e-01 1.60574e-01 2.57360e-01
-14.15918 -38.10850 17.99822 -1.33657e-01 -1.40707e-01 -1.51220e-01 -1.33657e-01 -1.40707e-01 -1.51220e-01 2.46029e-01
-14.01408 -42.10850 17.99822 1.17460e-01 -1.44691e-01 -1.63832e-01 1.17460e-01 -1.44691e-01 -1.63832e-01 2.48140e-01
-9.97628 49.90730 17.99822 1.43370e-01 -1.33756e-01 -1.57978e-01 1.43370e-01 -1.33756e-01 -1.57978e-01 2.51799e-01
-9.95888 45.91310 17.99822 1.32021e-01 -1.35617e-01 -1.46025e-01 1.32021e-01 -1.35617e-01 -1.46025e-01 2.39050e-01
-10.12148 41.89810 17.99822 -1.29573e-01 -1.40921e-01 -1.45055e-01 -1.29573e-01 -1.40921e-01 -1.45055e-01 2.40185e-01
-10.13198 37.91190 17.99822 -1.36675e-01 -1.32183e-01 -1.46311e-01 -1.36675e-01 -1.32183e-01 -1.46311e-01 2.39915e-01
-9.98538 33.91890 17.99822 1.05570e-01 -1.16468e-01 1.54786e-01 1.05570e-01 -1.16468e-01 1.54786e-01 2.20609e-01
-10.12938 29.95430 17.99822 -1.45520e-01 -9.77842e-02 1.65465e-01 -1.45520e-01 -9.77842e-02 1.65465e-01 2.41073e-01
-10.14308 25.96530 17.99822 -1.58018e-01 -9.42960e-02 1.76576e-01 -1.58018e-01 -9.42960e-02 1.76576e-01 2.55030e-01
-10.13028 21.96150 17.99822 -1.44410e-01 -1.05586e-01 1.61160e-01 -1.44410e-01 -1.05586e-01 1.61160e-01 2.40780e-01
-10.13368 17.93330 17.99822 -1.44185e-01 -1.28114e-01 1.70074e-01 -1.44185e-01 -1.28114e-01 1.70074e-01 2.57153e-01
-10.13188 13.93350 17.99822 -1.39287e-01 -1.31694e-01 1.55207e-01 -1.39287e-01 -1.31694e-01 1.55207e-01 2.46645e-01
-10.15248 9.91819 17.99822 -1.56667e-01 -1.40695e-01 1.47307e-01 -1.56667e-01 -1.40695e-01 1.47307e-01 2.56981e-01
-10.00898 5.87894 17.99822 1.04930e-01 -1.55811e-01 -1.44488e-01 1.04930e-01 -1.55811e-01 -1.44488e-01 2.36990e-01
-9.98628 1.88848 17.99822 1.43031e-01 -1.43872e-01 -1.28551e-01 1.43031e-01 -1.43872e-01 -1.28551e-01 2.40172e-01
-9.96618 -2.11040 17.99822 1.34334e-01 -1.35662e-01 1.40564e-01 1.34334e-01 -1.35662e-01 1.40564e-01 2.37082e-01
-10.14818 -6.07910 17.99822 -1.38573e-01 -1.29096e-01 1.07719e-01 -1.38573e-01 -1.29096e-01 1.07719e-01 2.17880e-01
-10.14768 -10.07820 17.99822 -1.47659e-01 -1.29515e-01 1.36122e-01 -1.47659e-01 -1.29515e-01 1.36122e-01 2.38969e-01
-9.99048 -14.07450 17.99822 9.55648e-02 -1.22012e-01 1.55534e-01 9.55648e-02 -1.22012e-01 1.55534e-01 2.19569e-01
-9.97558 -18.07000 17.99822 9.65827e-02 -1.22872e-01 -1.22051e-01 9.65827e-02 -1.22872e-01 -1.22051e-01 1.98298e-01
-10.13998 -22.06420 17.99822 -1.38790e-01 -1.27645e-01 9.81838e-02 -1.38790e-01 -1.27645e-01 9.81838e-02 2.12593e-01
-9.98768 -26.07040 17.99822 1.34176e-01 -1.28558e-01 1.72238e-01 1.34176e-01 -1.28558e-01 1.72238e-01 2.53370e-01
-10.00948 -30.08500 17.99822 9.48939e-02 -1.28066e-01 1.66181e-01 9.48939e-02 -1.28066e-01 1.66181e-01 2.30265e-01
-10.16778 -34.09220 17.99822 -1.30416e-01 -1.44859e-01 1.36280e-01 -1.30416e-01 -1.44859e-01 1.36280e-01 2.37834e-01
-10.16108 -38.09240 17.99822 -1.36778e-01 -1.47631e-01 -1.52717e-01 -1.36778e-01 -1.47631e-01 -1.52717e-01 2.52638e-01
-10.01498 -42.11990 17.99822 1.12378e-01 -1.42863e-01 -1.56980e-01 1.12378e-01 -1.42863e-01 -1.56980e-01 2.40169e-01
-5.98378 50.06510 17.99822 1.40643e-01 1.13760e-01 -1.60464e-01 1.40643e-01 1.13760e-01 -1.60464e-01 2.41807e-01
-5.97738 46.08240 17.99822 1.29958e-01 1.32107e-01 1.12621e-01 1.29958e-01 1.32107e-01 1.12621e-01 2.16852e-01
-6.11678 42.06230 17.99822 -1.33496e-01 1.33385e-01 1.28406e-01 -1.33496e-01 1.33385e-01 1.28406e-01 2.28256e-01
-6.12238 38.06230 17.99822 -1.33960e-01 1.26097e-01 1.43123e-01 -1.33960e-01 1.26097e-01 1.43123e-01 2.33088e-01
-5.98588 34.06740 17.99822 9.61431e-02 1.19407e-01 1.57343e-01 9.61431e-02 1.19407e-01 1.57343e-01 2.19678e-01
-6.11068 30.07880 17.99822 -1.32958e-01 1.17310e-01 1.64198e-01 -1.32958e-01 1.17310e-01 1.64198e-01 2.41662e-01
-6.13148 26.05660 17.99822 -1.55067e-01 1.14231e-01 1.64069e-01 -1.55067e-01 1.14231e-01 1.64069e-01 2.53008e-01
-6.12098 22.05210 17.99822 -1.42847e-01 1.13120e-01 1.80316e-01 -1.42847e-01 1.13120e-01 1.80316e-01 2.56350e-01
-6.13328 18.06470 17.99822 -1.53334e-01 1.09486e-01 1.63093e-01 -1.53334e-01 1.09486e-01 1.63093e-01 2.49195e-01
-6.14548 14.07570 17.99822 -1.53541e-01 1.08983e-01 1.67278e-01 -1.53541e-01 1.08983e-01 1.67278e-01 2.51861e-01
-6.13718 10.06020 17.99822 -1.49095e-01 1.05315e-01 1.33965e-01 -1.49095e-01 1.05315e-01 1.33965e-01 2.26423e-01
-5.98328 6.06134 17.99822 1.05552e-01 1.15154e-01 -1.42616e-01 1.05552e-01 1.15154e-01 -1.42616e-01 2.11521e-01
-5.96158 2.04530 17.99822 1.46385e-01 1.12746e-01 -1.33309e-01 1.46385e-01 1.12746e-01 -1.33309e-01 2.27841e-01
-5.95808 -1.94800 17.99822 1.34016e-01 1.10568e-01 1.19842e-01 1.34016e-01 1.10568e-01 1.19842e-01 2.11063e-01
-6.12718 -5.93420 17.99822 -1.38813e-01 1.04455e-01 -1.27282e-01 -1.38813e-01 1.04455e-01 -1.27282e-01 2.15362e-01
-6.13158 -9.94130 17.99822 -1.49824e-01 9.29330e-02 -1.15577e-01 -1.49824e-01 9.29330e-02 -1.15577e-01 2.10812e-01
-5.98188 -13.92570 17.99822 9.45458e-02 1.03566e-01 1.34678e-01 9.45458e-02 1.03566e-01 1.34678e-01 1.94430e-01
-5.98588 -17.92730 17.99822 9.24747e-02 1.14866e-01 -1.41262e-01 9.24747e-02 1.14866e-01 -1.41262e-01 2.04208e-01
-6.11868 -21.91340 17.99822 -1.32690e-01 1.31366e-01 -1.40251e-01 -1.32690e-01 1.31366e-01 -1.40251e-01 2.33525e-01
-5.96128 -25.92610 17.99822 1.40115e-01 1.38648e-01 1.30369e-01 1.40115e-01 1.38648e-01 1.30369e-01 2.36330e-01
-6.01298 -29.92960 17.99822 1.00187e-01 1.30964e-01 1.49859e-01 1.00187e-01 1.30964e-01 1.49859e-01 2.22816e-01
-6.15488 -33.93640 17.99822 -1.42558e-01 1.16611e-01 -1.38504e-01 -1.42558e-01 1.16611e-01 -1.38504e-01 2.30444e-01
-6.14818 -37.93060 17.99822 -1.35970e-01 1.14695e-01 -1.60226e-01 -1.35970e-01 1.14695e-01 -1.60226e-01 2.39406e-01
-5.99978 -41.95180 17.99822 1.19921e-01 1.10417e-01 -1.57037e-01 1.19921e-01 1.10417e-01 -1.57037e-01 2.26348e-01
-1.97428 50.06370 17.99822 1.37798e-01 1.15727e-01 -1.38988e-01 1.37798e-01 1.15727e-01 -1.38988e-01 2.27373e-01
-1.96698 46.07260 17.99822 1.24982e-01 1.24014e-01 1.35838e-01 1.24982e-01 1.24014e-01 1.35838e-01 2.22378e-01
-2.14068 42.04080 17.99822 -1.48149e-01 1.21477e-01 1.55269e-01 -1.48149e-01 1.21477e-01 1.55269e-01 2.46603e-01
-2.13178 38.05210 17.99822 -1.38921e-01 1.21924e-01 1.30499e-01 -1.38921e-01 1.21924e-01 1.30499e-01 2.26262e-01
-1.97418 34.05290 17.99822 9.08672e-02 1.08430e-01 1.40904e-01 9.08672e-02 1.08430e-01 1.40904e-01 1.99669e-01
-2.11448 30.05440 17.99822 -1.38484e-01 1.11009e-01 1.54304e-01 -1.38484e-01 1.11009e-01 1.54304e-01 2.35182e-01
-2.13268 26.03670 17.99822 -1.62372e-01 1.10739e-01 1.65867e-01 -1.62372e-01 1.10739e-01 1.65867e-01 2.57176e-01
-2.11638 22.02730 17.99822 -1.52547e-01 9.46693e-02 1.66072e-01 -1.52547e-01 9.46693e-02 1.66072e-01 2.44567e-01
-2.11148 18.02450 17.99822 -1.54916e-01 8.78546e-02 1.62748e-01 -1.54916e-01 8.78546e-02 1.62748e-01 2.41255e-01
-2.13138 14.03090 17.99822 -1.67052e-01 9.22918e-02 1.67822e-01 -1.67052e-01 9.22918e-02 1.67822e-01 2.54143e-01
-2.13238 10.05090 17.99822 -1.42984e-01 1.01108e-01 1.40200e-01 -1.42984e-01 1.01108e-01 1.40200e-01 2.24328e-01
-1.97838 6.07108 17.99822 1.22115e-01 1.20397e-01 -1.17130e-01 1.22115e-01 1.20397e-01 -1.17130e-01 2.07671e-01
-1.95138 2.07754 17.99822 1.52061e-01 1.33335e-01 -1.35457e-01 1.52061e-01 1.33335e-01 -1.35457e-01 2.43412e-01
-1.96668 -1.92450 17.99822 1.20670e-01 1.25463e-01 1.17362e-01 1.20670e-01 1.25463e-01 1.17362e-01 2.09943e-01
-2.10988 -5.92970 17.99822 -1.30656e-01 1.13628e-01 -1.37723e-01 -1.30656e-01 1.13628e-01 -1.37723e-01 2.21246e-01
-2.11328 -9.92100 17.99822 -1.43397e-01 1.16462e-01 -1.46634e-01 -1.43397e-01 1.16462e-01 -1.46634e-01 2.35855e-01
-1.95868 -13.91860 17.99822 1.03187e-01 1.19995e-01 -1.55988e-01 1.03187e-01 1.19995e-01 -1.55988e-01 2.22213e-01
-1.97988 -17.91370 17.99822 9.42141e-02 1.20416e-01 -1.55959e-01 9.42141e-02 1.20416e-01 -1.55959e-01 2.18402e-01
-2.11618 -21.91440 17.99822 -1.25973e-01 1.21133e-01 -1.63650e-01 -1.25973e-01 1.21133e-01 -1.63650e-01 2.39424e-01
-1.96078 -25.91400 17.99822 1.42529e-01 1.29712e-01 -1.10654e-01 1.42529e-01 1.29712e-01 -1.10654e-01 2.22225e-01
-2.00428 -29.91560 17.99822 1.09662e-01 1.33095e-01 1.34000e-01 1.09662e-01 1.33095e-01 1.34000e-01 2.18394e-01
-2.15028 -33.92670 17.99822 -1.45579e-01 1.30300e-01 -1.42345e-01 -1.45579e-01 1.30300e-01 -1.42345e-01 2.41730e-01
-2.13978 -37.94700 17.99822 -1.49479e-01 1.18923e-01 -1.48549e-01 -1.49479e-01 1.18923e-01 -1.48549e-01 2.41978e-01
-1.97988 -41.94340 17.99822 1.30980e-01 1.20465e-01 -1.43960e-01 1.30980e-01 1.20465e-01 -1.43960e-01 2.28893e-01
2.03241 49.90640 17.99822 1.29594e-01 -1.07942e-01 1.56130e-01 1.29594e-01 -1.07942e-01 1.56130e-01 2.29832e-01
2.01524 45.93100 17.99822 1.18192e-01 -9.20790e-02 1.56555e-01 1.18192e-01 -9.20790e-02 1.56555e-01 2.16696e-01
1.86278 41.93770 17.99822 -1.56021e-01 -9.42511e-02 -1.23433e-01 -1.56021e-01 -9.42511e-02 -1.23433e-01 2.20140e-01
1.89339 37.91540 17.99822 -1.34887e-01 -1.19876e-01 -1.35425e-01 -1.34887e-01 -1.19876e-01 -1.35425e-01 2.25621e-01
2.03760 33.91630 17.99822 9.72166e-02 -1.23296e-01 -1.32620e-01 9.72166e-02 -1.23296e-01 -1.32620e-01 2.05526e-01
1.89196 29.89920 17.99822 -1.43316e-01 -1.20337e-01 1.55536e-01 -1.43316e-01 -1.20337e-01 1.55536e-01 2.43335e-01
1.89280 25.91530 17.99822 -1.57263e-01 -1.15028e-01 1.47499e-01 -1.57263e-01 -1.15028e-01 1.47499e-01 2.44375e-01
1.91050 21.90160 17.99822 -1.45293e-01 -1.16741e-01 1.51281e-01 -1.45293e-01 -1.16741e-01 1.51281e-01 2.40051e-01
1.90870 17.89500 17.99822 -1.46441e-01 -1.15326e-01 1.67956e-01 -1.46441e-01 -1.15326e-01 1.67956e-01 2.50907e-01
1.88935 13.89300 17.99822 -1.72770e-01 -1.17467e-01 1.45102e-01 -1.72770e-01 -1.17467e-01 1.45102e-01 2.54367e-01
1.88656 9.91470 17.99822 -1.42297e-01 -1.14705e-01 1.57719e-01 -1.42297e-01 -1.14705e-01 1.57719e-01 2.41415e-01
2.04938 5.90825 17.99822 1.37638e-01 -1.22967e-01 1.44071e-01 1.37638e-01 -1.22967e-01 1.44071e-01 2.34140e-01
2.06812 1.92876 17.99822 1.44246e-01 -1.10891e-01 -1.59460e-01 1.44246e-01 -1.10891e-01 -1.59460e-01 2.41932e-01
2.05872 -2.05420 17.99822 1.28459e-01 -1.11524e-01 -1.43362e-01 1.28459e-01 -1.11524e-01 -1.43362e-01 2.22468e-01
1.90123 -6.06760 17.99822 -1.30933e-01 -1.18817e-01 -1.58717e-01 -1.30933e-01 -1.18817e-01 -1.58717e-01 2.37596e-01
1.90785 -10.06190 17.99822 -1.30598e-01 -1.20377e-01 -1.71399e-01 -1.30598e-01 -1.20377e-01 -1.71399e-01 2.46828e-01
2.04745 -14.06010 17.99822 9.64773e-02 -1.13362e-01 -1.76756e-01 9.64773e-02 -1.13362e-01 -1.76756e-01 2.31088e-01
2.03884 -18.05370 17.99822 8.92822e-02 -1.02849e-01 -1.75835e-01 8.92822e-02 -1.02849e-01 -1.75835e-01 2.22412e-01
1.89164 -22.05500 17.99822 -1.26240e-01 -1.07415e-01 -1.75760e-01 -1.26240e-01 -1.07415e-01 -1.75760e-01 2.41591e-01
2.03887 -26.07630 17.99822 1.39795e-01 -1.23398e-01 1.41073e-01 1.39795e-01 -1.23398e-01 1.41073e-01 2.33819e-01
2.00952 -30.08700 17.99822 1.12109e-01 -1.30719e-01 1.24388e-01 1.12109e-01 -1.30719e-01 1.24388e-01 2.12434e-01
1.86918 -34.10700 17.99822 -1.46995e-01 -1.38745e-01 -1.02439e-01 -1.46995e-01 -1.38745e-01 -1.02439e-01 2.26609e-01
1.86007 -38.11330 17.99822 -1.45598e-01 -1.29239e-01 1.28122e-01 -1.45598e-01 -1.29239e-01 1.28122e-01 2.33060e-01
2.03241 -42.10880 17.99822 1.41422e-01 -1.11612e-01 1.47178e-01 1.41422e-01 -1.11612e-01 1.47178e-01 2.32635e-01
6.04445 49.88430 17.99822 1.33644e-01 -1.31913e-01 1.51254e-01 1.33644e-01 -1.31913e-01 1.51254e-01 2.41122e-01
6.04455 45.90530 17.99822 1.32018e-01 -1.29889e-01 1.38040e-01 1.32018e-01 -1.29889e-01 1.38040e-01 2.30987e-01
5.88257 41.91830 17.99822 -1.55209e-01 -1.17915e-01 -1.36786e-01 -1.55209e-01 -1.17915e-01 -1.36786e-01 2.38126e-01
5.89169 37.91740 17.99822 -1.38955e-01 -1.12066e-01 -1.51668e-01 -1.38955e-01 -1.12066e-01 -1.51668e-01 2.34245e-01
6.03925 33.91450 17.99822 1.01457e-01 -1.13609e-01 -1.62183e-01 1.01457e-01 -1.13609e-01 -1.62183e-01 2.22494e-01
5.91152 29.92050 17.99822 -1.36563e-01 -1.19051e-01 -1.55874e-01 -1.36563e-01 -1.19051e-01 -1.55874e-01 2.38997e-01
5.89593 25.92040 17.99822 -1.61592e-01 -1.16084e-01 1.39032e-01 -1.61592e-01 -1.16084e-01 1.39032e-01 2.42729e-01
5.91162 21.92320 17.99822 -1.34774e-01 -1.14890e-01 1.51319e-01 -1.34774e-01 -1.14890e-01 1.51319e-01 2.32940e-01
5.90659 17.91950 17.99822 -1.42386e-01 -1.05453e-01 1.70604e-01 -1.42386e-01 -1.05453e-01 1.70604e-01 2.45968e-01
5.89445 13.91510 17.99822 -1.64190e-01 -1.03705e-01 1.62603e-01 -1.64190e-01 -1.03705e-01 1.62603e-01 2.53284e-01
5.90572 9.91597 17.99822 -1.48212e-01 -1.11889e-01 1.54011e-01 -1.48212e-01 -1.11889e-01 1.54011e-01 2.41258e-01
6.07607 5.93942 17.99822 1.35690e-01 -9.81350e-02 1.47560e-01 1.35690e-01 -9.81350e-02 1.47560e-01 2.23195e-01
6.06235 1.93809 17.99822 1.28739e-01 -1.06873e-01 -1.52741e-01 1.28739e-01 -1.06873e-01 -1.52741e-01 2.26552e-01
6.07667 -2.05700 17.99822 1.28616e-01 -9.99053e-02 -1.65672e-01 1.28616e-01 -9.99053e-02 -1.65672e-01 2.32316e-01
5.92538 -6.05350 17.99822 -1.19938e-01 -1.02829e-01 -1.86249e-01 -1.19938e-01 -1.02829e-01 -1.86249e-01 2.44228e-01
5.91781 -10.05330 17.99822 -1.25887e-01 -1.02858e-01 -1.62626e-01 -1.25887e-01 -1.02858e-01 -1.62626e-01 2.29945e-01
6.04370 -14.06550 17.99822 9.16100e-02 -1.14369e-01 -1.66597e-01 9.16100e-02 -1.14369e-01 -1.66597e-01 2.21872e-01
6.05046 -18.06490 17.99822 9.61306e-02 -1.19631e-01 -1.72789e-01 9.61306e-02 -1.19631e-01 -1.72789e-01 2.31103e-01
5.90606 -22.06830 17.99822 -1.13441e-01 -1.21291e-01 -1.29358e-01 -1.13441e-01 -1.21291e-01 -1.29358e-01 2.10508e-01
6.02436 -26.08140 17.99822 1.20168e-01 -1.14274e-01 1.52031e-01 1.20168e-01 -1.14274e-01 1.52031e-01 2.24971e-01
6.02084 -30.08730 17.99822 1.10508e-01 -1.19549e-01 -1.18638e-01 1.10508e-01 -1.19549e-01 -1.18638e-01 2.01442e-01
5.87086 -34.09100 17.99822 -1.49532e-01 -1.21106e-01 -1.35258e-01 -1.49532e-01 -1.21106e-01 -1.35258e-01 2.35205e-01
5.86451 -38.09410 17.99822 -1.48150e-01 -1.16211e-01 1.40878e-01 -1.48150e-01 -1.16211e-01 1.40878e-01 2.35160e-01
6.05401 -42.09850 17.99822 1.49595e-01 -1.12756e-01 1.33236e-01 1.49595e-01 -1.12756e-01 1.33236e-01 2.29879e-01
10.05700 50.03090 17.99822 1.44726e-01 1.03288e-01 -1.27133e-01 1.44726e-01 1.03288e-01 -1.27133e-01 2.18580e-01
10.07780 46.04520 17.99822 1.46359e-01 1.02371e-01 -1.41905e-01 1.46359e-01 1.02371e-01 -1.41905e-01 2.28117e-01
9.90195 42.06520 17.99822 -1.37784e-01 1.22702e-01 -1.48277e-01 -1.37784e-01 1.22702e-01 -1.48277e-01 2.36698e-01
9.91775 38.06130 17.99822 -1.35184e-01 1.29175e-01 -1.56124e-01 -1.35184e-01 1.29175e-01 -1.56124e-01 2.43589e-01
10.05630 34.05900 17.99822 1.00205e-01 1.26005e-01 -1.59143e-01 1.00205e-01 1.26005e-01 -1.59143e-01 2.26373e-01
9.89583 30.06490 17.99822 -1.39341e-01 1.23029e-01 -1.64535e-01 -1.39341e-01 1.23029e-01 -1.64535e-01 2.48242e-01
9.91159 26.06950 17.99822 -1.58713e-01 1.19283e-01 -1.55737e-01 -1.58713e-01 1.19283e-01 -1.55737e-01 2.52334e-01
9.91189 22.07360 17.99822 -1.39206e-01 1.26385e-01 -1.38996e-01 -1.39206e-01 1.26385e-01 -1.38996e-01 2.33819e-01
9.90891 18.05690 17.99822 -1.43583e-01 1.23066e-01 1.36082e-01 -1.43583e-01 1.23066e-01 1.36082e-01 2.32980e-01
9.90328 14.04810 17.99822 -1.63315e-01 1.13658e-01 -9.83242e-02 -1.63315e-01 1.13658e-01 -9.83242e-02 2.21940e-01
9.92475 10.05690 17.99822 -1.43935e-01 1.19591e-01 -1.26737e-01 -1.43935e-01 1.19591e-01 -1.26737e-01 2.26012e-01
10.09400 6.05285 17.99822 1.37021e-01 1.12930e-01 -1.53094e-01 1.37021e-01 1.12930e-01 -1.53094e-01 2.34448e-01
10.07900 2.06118 17.99822 1.33639e-01 1.18692e-01 -1.58197e-01 1.33639e-01 1.18692e-01 -1.58197e-01 2.38691e-01
10.09060 -1.92490 17.99822 1.36345e-01 1.34007e-01 -1.59715e-01 1.36345e-01 1.34007e-01 -1.59715e-01 2.49112e-01
9.91427 -5.91730 17.99822 -1.18654e-01 1.39131e-01 -1.51472e-01 -1.18654e-01 1.39131e-01 -1.51472e-01 2.37445e-01
9.92079 -9.93270 17.99822 -1.28467e-01 1.27483e-01 -1.70946e-01 -1.28467e-01 1.27483e-01 -1.70946e-01 2.48954e-01
10.05690 -13.94220 17.99822 8.37560e-02 1.19278e-01 -1.73200e-01 8.37560e-02 1.19278e-01 -1.73200e-01 2.26364e-01
10.05060 -17.93100 17.99822 1.01121e-01 1.27714e-01 -1.44355e-01 1.01121e-01 1.27714e-01 -1.44355e-01 2.17658e-01
9.91866 -21.92350 17.99822 -1.04135e-01 1.38916e-01 1.36961e-01 -1.04135e-01 1.38916e-01 1.36961e-01 2.21133e-01
10.05020 -25.92550 17.99822 1.28320e-01 1.40056e-01 1.51343e-01 1.28320e-01 1.40056e-01 1.51343e-01 2.42871e-01
10.02050 -29.93350 17.99822 1.07222e-01 1.41194e-01 1.29318e-01 1.07222e-01 1.41194e-01 1.29318e-01 2.19444e-01
9.85648 -33.93280 17.99822 -1.65914e-01 1.43206e-01 -1.29031e-01 -1.65914e-01 1.43206e-01 -1.29031e-01 2.54331e-01
9.89484 -37.93110 17.99822 -1.40708e-01 1.52812e-01 -1.37221e-01 -1.40708e-01 1.52812e-01 -1.37221e-01 2.48958e-01
10.07360 -41.96570 17.99822 1.40888e-01 1.32101e-01 -1.53071e-01 1.40888e-01 1.32101e-01 -1.53071e-01 2.46437e-01
14.08240 50.05850 17.99822 1.46420e-01 1.35022e-01 1.11309e-01 1.46420e-01 1.35022e-01 1.11309e-01 2.28165e-01
14.07150 46.08230 17.99822 1.34046e-01 1.37904e-01 -1.30952e-01 1.34046e-01 1.37904e-01 -1.30952e-01 2.32668e-01
13.90360 42.06650 17.99822 -1.38842e-01 1.33659e-01 -1.47797e-01 -1.38842e-01 1.33659e-01 -1.47797e-01 2.42870e-01
13.89920 38.05540 17.99822 -1.44792e-01 1.27239e-01 -1.46887e-01 -1.44792e-01 1.27239e-01 -1.46887e-01 2.42344e-01
14.05280 34.04970 17.99822 9.90862e-02 1.24360e-01 -1.69088e-01 9.90862e-02 1.24360e-01 -1.69088e-01 2.32108e-01
13.91430 30.04370 17.99822 -1.38490e-01 1.20276e-01 -1.71392e-01 -1.38490e-01 1.20276e-01 -1.71392e-01 2.51040e-01
13.90480 26.05080 17.99822 -1.58442e-01 1.24625e-01 -1.42850e-01 -1.58442e-01 1.24625e-01 -1.42850e-01 2.47066e-01
13.90280 22.05570 17.99822 -1.46078e-01 1.29463e-01 -1.31375e-01 -1.46078e-01 1.29463e-01 -1.31375e-01 2.35284e-01
13.90090 18.04460 17.99822 -1.51847e-01 1.27982e-01 1.50720e-01 -1.51847e-01 1.27982e-01 1.50720e-01 2.49306e-01
13.90620 14.05350 17.99822 -1.52172e-01 1.23424e-01 1.45688e-01 -1.52172e-01 1.23424e-01 1.45688e-01 2.44162e-01
13.91940 10.07290 17.99822 -1.44148e-01 1.29404e-01 -1.30521e-01 -1.44148e-01 1.29404e-01 -1.30521e-01 2.33581e-01
14.08960 6.07049 17.99822 1.30891e-01 1.30053e-01 -1.48785e-01 1.30891e-01 1.30053e-01 -1.48785e-01 2.37030e-01
14.08120 2.06871 17.99822 1.33882e-01 1.27331e-01 -1.48530e-01 1.33882e-01 1.27331e-01 -1.48530e-01 2.37063e-01
14.09420 -1.93090 17.99822 1.46482e-01 1.29531e-01 -1.41526e-01 1.46482e-01 1.29531e-01 -1.41526e-01 2.41381e-01
13.92420 -5.94270 17.99822 -1.22476e-01 1.28236e-01 -1.44669e-01 -1.22476e-01 1.28236e-01 -1.44669e-01 2.28854e-01
13.89380 -9.94140 17.99822 -1.47319e-01 1.21386e-01 -1.46876e-01 -1.47319e-01 1.21386e-01 -1.46876e-01 2.40853e-01
14.04850 -13.93990 17.99822 8.64602e-02 1.29552e-01 -1.51687e-01 8.64602e-02 1.29552e-01 -1.51687e-01 2.17412e-01
14.06540 -17.93850 17.99822 1.15851e-01 1.28518e-01 1.38865e-01 1.15851e-01 1.28518e-01 1.38865e-01 2.21860e-01
13.90500 -21.92400 17.99822 -1.12843e-01 1.28482e-01 1.57463e-01 -1.12843e-01 1.28482e-01 1.57463e-01 2.32456e-01
14.05030 -25.92810 17.99822 1.26704e-01 1.36379e-01 1.53904e-01 1.26704e-01 1.36379e-01 1.53904e-01 2.41536e-01
14.03200 -29.91720 17.99822 1.14940e-01 1.43048e-01 1.38912e-01 1.14940e-01 1.43048e-01 1.38912e-01 2.30153e-01
13.88840 -33.92840 17.99822 -1.52294e-01 1.47349e-01 1.05469e-01 -1.52294e-01 1.47349e-01 1.05469e-01 2.36704e-01
13.90280 -37.94520 17.99822 -1.42813e-01 1.50734e-01 -1.27949e-01 -1.42813e-01 1.50734e-01 -1.27949e-01 2.43900e-01
14.07680 -41.94520 17.99822 1.23674e-01 1.53020e-01 -1.45780e-01 1.23674e-01 1.53020e-01 -1.45780e-01 2.44872e-01
18.08290 49.91260 17.99822 1.38392e-01 -1.15735e-01 1.03180e-01 1.38392e-01 -1.15735e-01 1.03180e-01 2.07829e-01
18.07050 45.91380 17.99822 1.23481e-01 -1.20397e-01 1.39758e-01 1.23481e-01 -1.20397e-01 1.39758e-01 2.21980e-01
17.92130 41.91630 17.99822 -1.37257e-01 -1.07590e-01 -1.60268e-01 -1.37257e-01 -1.07590e-01 -1.60268e-01 2.36857e-01
17.90330 37.91710 17.99822 -1.49710e-01 -1.12986e-01 -1.42263e-01 -1.49710e-01 -1.12986e-01 -1.42263e-01 2.35409e-01
18.05450 33.91980 17.99822 9.10543e-02 -1.18062e-01 -1.56955e-01 9.10543e-02 -1.18062e-01 -1.56955e-01 2.16481e-01
17.93410 29.90510 17.99822 -1.37642e-01 -1.31460e-01 -1.45976e-01 -1.37642e-01 -1.31460e-01 -1.45976e-01 2.39867e-01
17.92180 25.89440 17.99822 -1.54015e-01 -1.25872e-01 1.48823e-01 -1.54015e-01 -1.25872e-01 1.48823e-01 2.48421e-01
17.91780 21.89290 17.99822 -1.47912e-01 -1.12872e-01 1.71065e-01 -1.47912e-01 -1.12872e-01 1.71065e-01 2.52747e-01
17.90990 17.90320 17.99822 -1.59207e-01 -9.78320e-02 1.48397e-01 -1.59207e-01 -9.78320e-02 1.48397e-01 2.38620e-01
17.91450 13.90550 17.99822 -1.56462e-01 -9.86170e-02 1.56747e-01 -1.56462e-01 -9.86170e-02 1.56747e-01 2.42436e-01
17.93230 9.93475 17.99822 -1.46325e-01 -9.23907e-02 1.43167e-01 -1.46325e-01 -9.23907e-02 1.43167e-01 2.24597e-01
18.08510 5.93327 17.99822 1.16096e-01 -1.04069e-01 1.30043e-01 1.16096e-01 -1.04069e-01 1.30043e-01 2.03027e-01
18.09020 1.91388 17.99822 1.32102e-01 -1.22966e-01 1.31190e-01 1.32102e-01 -1.22966e-01 1.31190e-01 2.23119e-01
18.11230 -2.08470 17.99822 1.47476e-01 -1.21152e-01 1.23433e-01 1.47476e-01 -1.21152e-01 1.23433e-01 2.27294e-01
17.92230 -6.09750 17.99822 -1.29833e-01 -1.17186e-01 1.16249e-01 -1.29833e-01 -1.17186e-01 1.16249e-01 2.10007e-01
17.89290 -10.07590 17.99822 -1.54553e-01 -1.08184e-01 -1.55490e-01 -1.54553e-01 -1.08184e-01 -1.55490e-01 2.44474e-01
18.06360 -14.08470 17.99822 1.01578e-01 -1.10875e-01 -1.30673e-01 1.01578e-01 -1.10875e-01 -1.30673e-01 1.99215e-01
18.06710 -18.08480 17.99822 1.11968e-01 -1.15394e-01 1.54630e-01 1.11968e-01 -1.15394e-01 1.54630e-01 2.23076e-01
17.92800 -22.07560 17.99822 -1.16599e-01 -1.15128e-01 1.74216e-01 -1.16599e-01 -1.15128e-01 1.74216e-01 2.39167e-01
18.06760 -26.07510 17.99822 1.24772e-01 -1.14452e-01 1.55042e-01 1.24772e-01 -1.14452e-01 1.55042e-01 2.29576e-01
18.05530 -30.08590 17.99822 1.07266e-01 -1.26668e-01 1.58889e-01 1.07266e-01 -1.26668e-01 1.58889e-01 2.29775e-01
17.91300 -34.08680 17.99822 -1.40982e-01 -1.30936e-01 1.19087e-01 -1.40982e-01 -1.30936e-01 1.19087e-01 2.26278e-01
17.91210 -38.08490 17.99822 -1.39051e-01 -1.18786e-01 -1.35936e-01 -1.39051e-01 -1.18786e-01 -1.35936e-01 2.27868e-01
18.06340 -42.08510 17.99822 1.16050e-01 -1.14001e-01 -1.58678e-01 1.16050e-01 -1.14001e-01 -1.58678e-01 2.27250e-01
22.07110 49.90860 17.99822 1.35115e-01 -1.37400e-01 -1.34391e-01 1.35115e-01 -1.37400e-01 -1.34391e-01 2.34938e-01
22.08220 45.90280 17.99822 1.29390e-01 -1.43156e-01 1.16298e-01 1.29390e-01 -1.43156e-01 1.16298e-01 2.25301e-01
21.91930 41.90710 17.99822 -1.41822e-01 -1.44795e-01 -1.30122e-01 -1.41822e-01 -1.44795e-01 -1.30122e-01 2.40855e-01
21.92150 37.90140 17.99822 -1.44526e-01 -1.47199e-01 -1.39013e-01 -1.44526e-01 -1.47199e-01 -1.39013e-01 2.48756e-01
22.08050 33.89940 17.99822 8.93437e-02 -1.52502e-01 1.35633e-01 8.93437e-02 -1.52502e-01 1.35633e-01 2.22790e-01
21.93820 29.90940 17.99822 -1.40802e-01 -1.50495e-01 1.48607e-01 -1.40802e-01 -1.50495e-01 1.48607e-01 2.54083e-01
21.93290 25.90840 17.99822 -1.40065e-01 -1.48254e-01 1.61597e-01 -1.40065e-01 -1.48254e-01 1.61597e-01 2.60214e-01
21.92550 21.90540 17.99822 -1.55547e-01 -1.47793e-01 1.63931e-01 -1.55547e-01 -1.47793e-01 1.63931e-01 2.70021e-01
21.92280 17.89370 17.99822 -1.60563e-01 -1.45460e-01 1.52556e-01 -1.60563e-01 -1.45460e-01 1.52556e-01 2.64976e-01
21.94000 13.91920 17.99822 -1.46842e-01 -1.29878e-01 1.52456e-01 -1.46842e-01 -1.29878e-01 1.52456e-01 2.48343e-01
21.92300 9.91454 17.99822 -1.59806e-01 -1.29957e-01 -1.22647e-01 -1.59806e-01 -1.29957e-01 -1.22647e-01 2.39727e-01
22.08210 5.90570 17.99822 1.04460e-01 -1.38809e-01 -1.40246e-01 1.04460e-01 -1.38809e-01 -1.40246e-01 2.23268e-01
22.07680 1.90453 17.99822 1.15649e-01 -1.43895e-01 -1.62539e-01 1.15649e-01 -1.43895e-01 -1.62539e-01 2.45967e-01
22.10890 -2.09700 17.99822 1.35844e-01 -1.48199e-01 -1.39916e-01 1.35844e-01 -1.48199e-01 -1.39916e-01 2.44934e-01
21.93790 -6.10070 17.99822 -1.22823e-01 -1.37645e-01 -1.43462e-01 -1.22823e-01 -1.37645e-01 -1.43462e-01 2.33694e-01
21.89670 -10.09340 17.99822 -1.60782e-01 -1.33670e-01 -1.35675e-01 -1.60782e-01 -1.33670e-01 -1.35675e-01 2.49252e-01
22.06400 -14.10030 17.99822 9.67071e-02 -1.45266e-01 -1.45476e-01 9.67071e-02 -1.45266e-01 -1.45476e-01 2.27195e-01
22.09210 -18.08200 17.99822 1.19313e-01 -1.45155e-01 1.32369e-01 1.19313e-01 -1.45155e-01 1.32369e-01 2.29841e-01
21.94060 -22.07510 17.99822 -1.21724e-01 -1.47445e-01 1.39725e-01 -1.21724e-01 -1.47445e-01 1.39725e-01 2.36812e-01
22.06450 -26.07430 17.99822 1.10212e-01 -1.42054e-01 1.67001e-01 1.10212e-01 -1.42054e-01 1.67001e-01 2.45388e-01
22.07560 -30.08840 17.99822 1.01456e-01 -1.53731e-01 1.49857e-01 1.01456e-01 -1.53731e-01 1.49857e-01 2.37452e-01
21.92930 -34.09830 17.99822 -1.35258e-01 -1.57902e-01 1.30402e-01 -1.35258e-01 -1.57902e-01 1.30402e-01 2.45423e-01
21.92640 -38.09250 17.99822 -1.34523e-01 -1.44208e-01 -1.43919e-01 -1.34523e-01 -1.44208e-01 -1.43919e-01 2.44142e-01
22.06240 -42.08890 17.99822 1.19879e-01 -1.38787e-01 -1.57468e-01 1.19879e-01 -1.38787e-01 -1.57468e-01 2.41721e-01
ZONE T="XY_mid_T1.500_C17.998_TS10000", I=24, J=10, K=1, DATAPACKING=POINT, STRANDID=1, SOLUTIONTIME=10000.000000
-13.98728 49.90570 17.99822 1.33409e-01 -1.60586e-01 -1.53519e-01 1.33409e-01 -1.60586e-01 -1.53519e-01 2.59141e-01
-13.96438 45.90600 17.99822 1.15816e-01 -1.59267e-01 -1.46262e-01 1.15816e-01 -1.59267e-01 -1.46262e-01 2.45299e-01
-14.14078 41.91760 17.99822 -1.43022e-01 -1.44264e-01 -1.59049e-01 -1.43022e-01 -1.44264e-01 -1.59049e-01 2.58000e-01
-14.15608 37.92900 17.99822 -1.53942e-01 -1.30837e-01 -1.15893e-01 -1.53942e-01 -1.30837e-01 -1.15893e-01 2.32911e-01
-14.00108 33.92050 17.99822 9.47762e-02 -1.30705e-01 1.44693e-01 9.47762e-02 -1.30705e-01 1.44693e-01 2.16801e-01
-14.13778 29.92110 17.99822 -1.46795e-01 -1.11094e-01 1.66726e-01 -1.46795e-01 -1.11094e-01 1.66726e-01 2.48371e-01
-14.15448 25.93230 17.99822 -1.54584e-01 -1.15002e-01 1.61898e-01 -1.54584e-01 -1.15002e-01 1.61898e-01 2.51660e-01
-14.14158 21.92670 17.99822 -1.47658e-01 -1.33871e-01 1.43132e-01 -1.47658e-01 -1.33871e-01 1.43132e-01 2.45379e-01
-14.14208 17.91800 17.99822 -1.47394e-01 -1.41529e-01 1.56835e-01 -1.47394e-01 -1.41529e-01 1.56835e-01 2.57590e-01
-14.14508 13.93000 17.99822 -1.67497e-01 -1.44476e-01 1.60287e-01 -1.67497e-01 -1.44476e-01 1.60287e-01 2.73168e-01
-14.16038 9.91782 17.99822 -1.61535e-01 -1.46305e-01 1.41717e-01 -1.61535e-01 -1.46305e-01 1.41717e-01 2.59966e-01
-14.00568 5.89579 17.99822 1.18230e-01 -1.52794e-01 -1.45178e-01 1.18230e-01 -1.52794e-01 -1.45178e-01 2.41663e-01
-14.01128 1.89085 17.99822 1.46246e-01 -1.34947e-01 -1.64741e-01 1.46246e-01 -1.34947e-01 -1.64741e-01 2.58338e-01
-13.97008 -2.09260 17.99822 1.20693e-01 -1.37092e-01 -1.56286e-01 1.20693e-01 -1.37092e-01 -1.56286e-01 2.40388e-01
-14.14908 -6.08970 17.99822 -1.29163e-01 -1.52504e-01 -1.19131e-01 -1.29163e-01 -1.52504e-01 -1.19131e-01 2.32664e-01
-14.16688 -10.09390 17.99822 -1.42468e-01 -1.49476e-01 1.24997e-01 -1.42468e-01 -1.49476e-01 1.24997e-01 2.41380e-01
-13.98808 -14.09010 17.99822 8.22734e-02 -1.52566e-01 1.33997e-01 8.22734e-02 -1.52566e-01 1.33997e-01 2.19090e-01
-13.97738 -18.07430 17.99822 1.10412e-01 -1.40401e-01 -1.25146e-01 1.10412e-01 -1.40401e-01 -1.25146e-01 2.18094e-01
-14.13598 -22.06450 17.99822 -1.26434e-01 -1.44457e-01 -9.95153e-02 -1.26434e-01 -1.44457e-01 -9.95153e-02 2.16233e-01