LAMMPS (29 Sep 2021)
# =========================================================
# BTO 沿 Y 轴压缩脚本 (基于已弛豫的 restart 文件)
# 包含了完整的力场重定义
# 保持了原始的 dump 输出格式和数据平滑输出
#
# 优化点：
# 重新调整了 Nload 和 RSTINT，确保 restart 文件在精确的 0.1% 应变整数点输出
# =========================================================

units           metal
dimension       3
boundary        p p p
atom_style      full
atom_modify     map yes

timestep        0.00005

# ---------------- 用户参数设置 ----------------
variable        RST       string single_relaxed_ready.restart
variable        CASE      string single
variable        TAG       string ${CASE}_ycompress_cont_2pct
variable        TAG       string single_ycompress_cont_2pct

variable        Tstart    equal 5.0
variable        Tstop     equal 5.0
variable        Tdamp     equal 0.10
variable        Pdamp     equal 2.0
variable        Ptarget   equal 0.0

# --- 【关键修改区：精确控制输出节点】 ---
# 目标：总压缩应变为 -2.0% (epsY = -0.02)
# 我们将总步数设为 1,000,000 步，这样每 1,000,000 步对应 2.0% 应变。
# 因此，每 50,000 步正好对应 0.1% 的应变 (0.001)。

variable        Npre      equal 20000       # 压缩前短时间弛豫步数
variable        Nload     equal 1000000     # 压缩过程总步数 (修改为100万步方便计算)
variable        epsY      equal -0.02       # 目标总应变 (-2.0%)
variable        ey_comp   equal v_epsY/(v_Nload*dt) # 计算应变率

variable        THERMOINT equal 1000
variable        DUMPINT   equal 10000

# 【核心参数】：设置 restart 输出间隔为 50000 步
# 因为使用了 reset_timestep 0，输出的文件将是：
# *.50000.restart  对应应变 -0.1%
# *.100000.restart 对应应变 -0.2%
# *.150000.restart 对应应变 -0.3%
# ... 以此类推，直到 *.1000000.restart (-2.0%)
variable        RSTINT    equal 50000
# ----------------------------------------

variable        OUTINST   string ${CASE}_ss_y_inst_2pct_cont.txt
variable        OUTINST   string single_ss_y_inst_2pct_cont.txt
variable        OUTAVG1   string ${CASE}_ss_y_avg_2pct_cont.txt
variable        OUTAVG1   string single_ss_y_avg_2pct_cont.txt
variable        OUTAVG2   string ${CASE}_ss_y_avg_2pct_cont_smooth.txt
variable        OUTAVG2   string single_ss_y_avg_2pct_cont_smooth.txt

# ---------------- 读取弛豫好的 restart 文件 ----------------
read_restart    ${RST}
read_restart    single_relaxed_ready.restart
Reading restart file ...
  restart file = 29 Sep 2021, LAMMPS = 29 Sep 2021
  restoring atom style full from restart
  triclinic box = (-0.033107229 0.0000000 -0.073459944) to (40.043107 96.010000 40.083460) with tilt (0.0000000 0.0000000 0.0000000)
  2 by 8 by 2 MPI processor grid
  restoring pair style born/coul/long/cs from restart
  restoring bond style class2 from restart
  24000 atoms
  12000 bonds
Finding 1-2 1-3 1-4 neighbors ...
  special bond factors lj:    0        0        0       
  special bond factors coul:  0        1        1       
     1 = max # of 1-2 neighbors
     0 = max # of 1-3 neighbors
     0 = max # of 1-4 neighbors
     1 = max # of special neighbors
  special bonds CPU = 0.002 seconds
  read_restart CPU = 0.017 seconds
fix             csinfo all property/atom i_CSID
Resetting peratom fix info from restart file:
  fix style: property/atom, fix ID: csinfo

# ---------------- 分组设定 (Groups) ----------------
group           Bacore    type 1
2400 atoms in group Bacore
group           Bashell   type 2
2400 atoms in group Bashell
group           Ticore    type 3
2400 atoms in group Ticore
group           Tishell   type 4
2400 atoms in group Tishell
group           Ocore     type 5
7200 atoms in group Ocore
group           Oshell    type 6
7200 atoms in group Oshell
group           cores     type 1 3 5
12000 atoms in group cores
group           shells    type 2 4 6
12000 atoms in group shells
group           BTO       type 1 2 3 4 5 6
24000 atoms in group BTO

# ---------------- 邻居列表设置 ----------------
neighbor        2.0 bin
neigh_modify    delay 0 every 1 check yes
comm_style      brick
comm_modify     vel yes cutoff 15.0

# ---------------- 力场重定义 (从 restart 续算必须包含) ----------------
pair_style      born/coul/long/cs 8.0 10.0
kspace_style    pppm 1.0e-5
pair_coeff      * * 0.0 1.000 0.0 0.0 0.0
pair_coeff      2 6 1568.42 0.3471 0.0 0.0 0.0
pair_coeff      4 6 3139.49 0.2549 0.0 0.0 0.0
pair_coeff      6 6 2571.97 0.3554 0.0 528.65 0.0
pair_modify     table 0

bond_style      class2
bond_coeff      1 0.0 154.915 0.0 0.0
bond_coeff      2 0.0 163.455 0.0 0.0
bond_coeff      3 0.0 23.185 0.0 289.8716667

special_bonds   coul 0.0 1.0 1.0

# ---------------- 计算项 (Computes) ----------------
compute         Tcs all temp/cs cores shells
compute         thermo_press_lmp all pressure Tcs
compute         dis all displace/atom
Resetting peratom fix info from restart file:
  fix style: STORE, fix ID: dis_COMPUTE_STORE
compute         myKE all ke/atom
compute         myPE all pe/atom
compute         mystress all stress/atom NULL
compute         COM BTO com
compute         UNWRAP BTO property/atom xu yu zu

variable        Mise atom sqrt(0.5*((c_mystress[1]-c_mystress[2])^2+(c_mystress[2]-c_mystress[3])^2+(c_mystress[3]-c_mystress[1])^2)+3.0*((c_mystress[4])^2+(c_mystress[5])^2+(c_mystress[6])^2))
variable        comx equal c_COM[1]
variable        comy equal c_COM[2]
variable        comz equal c_COM[3]
variable        mux atom q*(c_UNWRAP[1]-v_comx)
variable        muy atom q*(c_UNWRAP[2]-v_comy)
variable        muz atom q*(c_UNWRAP[3]-v_comz)
compute         MUX BTO reduce sum v_mux
compute         MUY BTO reduce sum v_muy
compute         MUZ BTO reduce sum v_muz

variable        conv equal 1602.176634
variable        Px equal v_conv*c_MUX/vol
variable        Py equal v_conv*c_MUY/vol
variable        Pz equal v_conv*c_MUZ/vol

thermo          ${THERMOINT}
thermo          1000
thermo_style    custom step time temp press pxx pyy pzz v_Px v_Py v_Pz lx ly lz xy xz yz
thermo_modify   temp Tcs press thermo_press_lmp lost error

run             0
PPPM initialization ...
  using polynomial approximation for long-range coulomb (../kspace.cpp:342)
  G vector (1/distance) = 0.3515158
  grid = 75 144 75
  stencil order = 5
  estimated absolute RMS force accuracy = 0.00016891223
  estimated relative force accuracy = 1.1730305e-05
  using double precision KISS FFT
  3d grid and FFT values/proc = 52900 32400
All restart file peratom fix info was re-assigned
Neighbor list info ...
  update every 1 steps, delay 0 steps, check yes
  max neighbors/atom: 2000, page size: 100000
  master list distance cutoff = 12
  ghost atom cutoff = 15
  binsize = 6, bins = 7 17 7
  1 neighbor lists, perpetual/occasional/extra = 1 0 0
  (1) pair born/coul/long/cs, perpetual
      attributes: half, newton on
      pair build: half/bin/newton/tri
      stencil: half/bin/3d/tri
      bin: standard
Per MPI rank memory allocation (min/avg/max) = 27.52 | 27.89 | 28.44 Mbytes
Step Time Temp Press Pxx Pyy Pzz v_Px v_Py v_Pz Lx Ly Lz Xy Xz Yz 
       0            0    4.9818516    388.36892   -89.762326    1416.6561    -158.0655   -17.515507   -10.792803   -13.788419    40.076214        96.01     40.15692            0            0            0 
Loop time of 9.93563e-05 on 32 procs for 0 steps with 24000 atoms

42.2% CPU use with 32 MPI tasks x no OpenMP threads

MPI task timing breakdown:
Section |  min time  |  avg time  |  max time  |%varavg| %total
---------------------------------------------------------------
Pair    | 0          | 0          | 0          |   0.0 |  0.00
Bond    | 0          | 0          | 0          |   0.0 |  0.00
Kspace  | 0          | 0          | 0          |   0.0 |  0.00
Neigh   | 0          | 0          | 0          |   0.0 |  0.00
Comm    | 0          | 0          | 0          |   0.0 |  0.00
Output  | 0          | 0          | 0          |   0.0 |  0.00
Modify  | 0          | 0          | 0          |   0.0 |  0.00
Other   |            | 9.936e-05  |            |       |100.00

Nlocal:        750.000 ave         790 max         722 min
Histogram: 1 2 4 12 5 4 1 2 0 1
Nghost:        16092.0 ave       16120 max       16052 min
Histogram: 1 0 2 1 4 5 12 4 2 1
Neighs:        417733.0 ave      438036 max      401153 min
Histogram: 1 2 5 1 11 6 4 1 0 1

Total # of neighbors = 13367442
Ave neighs/atom = 556.97675
Ave special neighs/atom = 1.0000000
Neighbor list builds = 0
Dangerous builds = 0

# ---------------- 压缩前短时间预弛豫 (NPT) ----------------
fix             fmom2 all momentum 1000 linear 1 1 1
fix             npt_eq all npt temp ${Tstart} ${Tstop} ${Tdamp} x ${Ptarget} ${Ptarget} ${Pdamp} z ${Ptarget} ${Ptarget} ${Pdamp} drag 1
fix             npt_eq all npt temp 5 ${Tstop} ${Tdamp} x ${Ptarget} ${Ptarget} ${Pdamp} z ${Ptarget} ${Ptarget} ${Pdamp} drag 1
fix             npt_eq all npt temp 5 5 ${Tdamp} x ${Ptarget} ${Ptarget} ${Pdamp} z ${Ptarget} ${Ptarget} ${Pdamp} drag 1
fix             npt_eq all npt temp 5 5 0.1 x ${Ptarget} ${Ptarget} ${Pdamp} z ${Ptarget} ${Ptarget} ${Pdamp} drag 1
fix             npt_eq all npt temp 5 5 0.1 x 0 ${Ptarget} ${Pdamp} z ${Ptarget} ${Ptarget} ${Pdamp} drag 1
fix             npt_eq all npt temp 5 5 0.1 x 0 0 ${Pdamp} z ${Ptarget} ${Ptarget} ${Pdamp} drag 1
fix             npt_eq all npt temp 5 5 0.1 x 0 0 2 z ${Ptarget} ${Ptarget} ${Pdamp} drag 1
fix             npt_eq all npt temp 5 5 0.1 x 0 0 2 z 0 ${Ptarget} ${Pdamp} drag 1
fix             npt_eq all npt temp 5 5 0.1 x 0 0 2 z 0 0 ${Pdamp} drag 1
fix             npt_eq all npt temp 5 5 0.1 x 0 0 2 z 0 0 2 drag 1
fix_modify      npt_eq temp Tcs press thermo_press_lmp

run             ${Npre}
run             20000
PPPM initialization ...
  using polynomial approximation for long-range coulomb (../kspace.cpp:342)
  G vector (1/distance) = 0.3515158
  grid = 75 144 75
  stencil order = 5
  estimated absolute RMS force accuracy = 0.00016891223
  estimated relative force accuracy = 1.1730305e-05
  using double precision KISS FFT
  3d grid and FFT values/proc = 52900 32400
Per MPI rank memory allocation (min/avg/max) = 29.77 | 30.14 | 30.69 Mbytes
Step Time Temp Press Pxx Pyy Pzz v_Px v_Py v_Pz Lx Ly Lz Xy Xz Yz 
       0            0    4.9818516    388.36892   -89.762326    1416.6561    -158.0655   -17.515507   -10.792803   -13.788419    40.076214        96.01     40.15692            0            0            0 
    1000         0.05    4.9837765    525.66025   -87.146743    1619.7802    48.031213   -17.633927   -10.868609   -13.729536    40.079338        96.01    40.148719            0            0            0 
    2000          0.1    4.9854288    498.04555    44.836584     1474.373   -21.311835   -17.534127   -10.951189   -13.578274    40.080415        96.01    40.149933            0            0            0 
    3000         0.15    4.9603385    419.01344   -33.999204    1306.9295   -12.128204   -17.539197   -10.797073   -13.656753    40.086412        96.01    40.148697            0            0            0 
    4000          0.2    5.0565847     550.5328    76.121649    1482.2813    96.920118    -17.61337   -10.818063   -13.773602    40.082221        96.01    40.146719            0            0            0 
    5000         0.25    5.0142549    697.22655     79.77012    1872.7566    142.92031   -17.573806   -10.925051   -13.686073    40.078256        96.01    40.149497            0            0            0 
    6000          0.3     5.028844    600.07708    147.17847    1639.3318    17.483001   -17.504773   -10.896885   -13.649767    40.076089        96.01    40.154304            0            0            0 
    7000         0.35    4.9873496    478.05913    41.487261    1284.5532    111.87994   -17.535764   -10.891743   -13.689116     40.08063        96.01    40.151688            0            0            0 
    8000          0.4    5.0398463    467.85688    7.1063188    1446.5091   -46.283914    -17.60498   -10.912228   -13.707354       40.083        96.01    40.151637            0            0            0 
    9000         0.45    4.9626864    488.53866   -62.131254    1574.8521   -43.371017   -17.598946   -11.006052    -13.66718    40.085273        96.01    40.145394            0            0            0 
   10000          0.5    5.0119837    464.58193   -35.172236    1432.6391  0.070822529   -17.582273   -10.924525   -13.649427    40.086648        96.01    40.141613            0            0            0 
   11000         0.55     5.019583    319.60699   -163.19839    1242.2415   -116.45213    -17.55655   -10.880921   -13.696952    40.086995        96.01    40.149143            0            0            0 
   12000          0.6    5.0440621     394.9216   -57.926328    1386.8594   -140.39232   -17.572628   -10.865561    -13.71733     40.08009        96.01    40.152214            0            0            0 
   13000         0.65    5.0201872     523.2592   -33.570761    1626.1035   -18.934931   -17.581999   -10.831543   -13.680033    40.077084        96.01    40.149242            0            0            0 
   14000          0.7     4.979186    574.08482    24.186731    1669.4692    32.370382   -17.529226   -10.847357   -13.635728    40.075509        96.01    40.151388            0            0            0 
   15000         0.75    4.9503613    493.58909    6.7152406    1469.7372     8.106362   -17.536604   -10.810457    -13.72028    40.078099        96.01    40.154395            0            0            0 
   16000          0.8    5.0664433    532.81927    112.21174    1401.5741    88.470208   -17.597444     -10.7753   -13.733235    40.078255        96.01    40.151909            0            0            0 
   17000         0.85    4.9235336    581.21924    124.99328    1522.4701    99.905314   -17.579712   -10.805781   -13.644932    40.081023        96.01    40.149981            0            0            0 
   18000          0.9    5.0118852    583.39419     41.83267    1580.3441    131.80502   -17.548808   -10.819904   -13.668014    40.083868        96.01    40.147701            0            0            0 
   19000         0.95     5.026256    502.60196    43.831182    1432.7706     34.95489   -17.531903   -10.764745    -13.71883    40.081765        96.01    40.149728            0            0            0 
   20000            1    4.9496098    414.96317   -13.234174    1293.7784    -31.88245    -17.62398   -10.707164   -13.624738    40.080979        96.01    40.153894            0            0            0 
Loop time of 849.051 on 32 procs for 20000 steps with 24000 atoms

Performance: 0.102 ns/day, 235.847 hours/ns, 23.556 timesteps/s
100.0% CPU use with 32 MPI tasks x no OpenMP threads

MPI task timing breakdown:
Section |  min time  |  avg time  |  max time  |%varavg| %total
---------------------------------------------------------------
Pair    | 357.95     | 372.66     | 390.5      |  34.6 | 43.89
Bond    | 0.22904    | 0.24254    | 0.26619    |   1.8 |  0.03
Kspace  | 238.23     | 256.09     | 270.66     |  41.5 | 30.16
Neigh   | 0          | 0          | 0          |   0.0 |  0.00
Comm    | 32.063     | 32.451     | 32.854     |   3.1 |  3.82
Output  | 0.004752   | 0.0048592  | 0.0078666  |   0.8 |  0.00
Modify  | 112.84     | 143.69     | 183.7      | 228.7 | 16.92
Other   |            | 43.91      |            |       |  5.17

Nlocal:        750.000 ave         790 max         722 min
Histogram: 1 2 4 12 5 4 1 2 0 1
Nghost:        16092.0 ave       16120 max       16052 min
Histogram: 1 0 2 1 4 5 12 4 2 1
Neighs:        417733.0 ave      438036 max      401153 min
Histogram: 1 2 5 1 11 6 4 1 0 1

Total # of neighbors = 13367442
Ave neighs/atom = 556.97675
Ave special neighs/atom = 1.0000000
Neighbor list builds = 0
Dangerous builds = 0
unfix           npt_eq
run             0
PPPM initialization ...
  using polynomial approximation for long-range coulomb (../kspace.cpp:342)
  G vector (1/distance) = 0.35151497
  grid = 75 144 75
  stencil order = 5
  estimated absolute RMS force accuracy = 0.00016891904
  estimated relative force accuracy = 1.1730778e-05
  using double precision KISS FFT
  3d grid and FFT values/proc = 52900 32400
Per MPI rank memory allocation (min/avg/max) = 29.77 | 30.14 | 30.69 Mbytes
Step Time Temp Press Pxx Pyy Pzz v_Px v_Py v_Pz Lx Ly Lz Xy Xz Yz 
   20000            1    4.9496112    414.96369   -13.233715     1293.779      -31.882    -17.62398   -10.707164   -13.624738    40.080979        96.01    40.153894            0            0            0 
Loop time of 3.93688e-06 on 32 procs for 0 steps with 24000 atoms

117.5% CPU use with 32 MPI tasks x no OpenMP threads

MPI task timing breakdown:
Section |  min time  |  avg time  |  max time  |%varavg| %total
---------------------------------------------------------------
Pair    | 0          | 0          | 0          |   0.0 |  0.00
Bond    | 0          | 0          | 0          |   0.0 |  0.00
Kspace  | 0          | 0          | 0          |   0.0 |  0.00
Neigh   | 0          | 0          | 0          |   0.0 |  0.00
Comm    | 0          | 0          | 0          |   0.0 |  0.00
Output  | 0          | 0          | 0          |   0.0 |  0.00
Modify  | 0          | 0          | 0          |   0.0 |  0.00
Other   |            | 3.937e-06  |            |       |100.00

Nlocal:        750.000 ave         775 max         718 min
Histogram: 1 0 2 2 3 11 8 2 2 1
Nghost:        16092.0 ave       16124 max       16067 min
Histogram: 1 2 2 8 11 3 2 2 0 1
Neighs:        417694.0 ave      429352 max      400319 min
Histogram: 1 0 2 2 3 6 9 5 2 2

Total # of neighbors = 13366218
Ave neighs/atom = 556.92575
Ave special neighs/atom = 1.0000000
Neighbor list builds = 0
Dangerous builds = 0

# ---------------- 冻结参考盒子长度 (用于计算工程应变) ----------------
variable        tmpx equal lx
variable        L0 equal ${tmpx}
variable        L0 equal 40.0809792211817
variable        tmpy equal ly
variable        L1 equal ${tmpy}
variable        L1 equal 96.01
variable        tmpz equal lz
variable        L2 equal ${tmpz}
variable        L2 equal 40.1538942506231

# ---------------- 冻结参考初始应力 (用于输出相对零应力) ----------------
variable        tmpSx equal c_thermo_press_lmp[1]
variable        S0x equal ${tmpSx}
variable        S0x equal -13.2337152939536
variable        tmpSy equal c_thermo_press_lmp[2]
variable        S0y equal ${tmpSy}
variable        S0y equal 1293.77898674055
variable        tmpSz equal c_thermo_press_lmp[3]
variable        S0z equal ${tmpSz}
variable        S0z equal -31.8820000780735

# 重置时间步！这保证了后续的 restart 文件名直接对应压缩步数
reset_timestep  0
run             0
PPPM initialization ...
  using polynomial approximation for long-range coulomb (../kspace.cpp:342)
  G vector (1/distance) = 0.35151497
  grid = 75 144 75
  stencil order = 5
  estimated absolute RMS force accuracy = 0.00016891904
  estimated relative force accuracy = 1.1730778e-05
  using double precision KISS FFT
  3d grid and FFT values/proc = 52900 32400
Per MPI rank memory allocation (min/avg/max) = 29.77 | 30.14 | 30.69 Mbytes
Step Time Temp Press Pxx Pyy Pzz v_Px v_Py v_Pz Lx Ly Lz Xy Xz Yz 
       0            1    4.9496112    414.96369   -13.233715     1293.779      -31.882    -17.62398   -10.707164   -13.624738    40.080979        96.01    40.153894            0            0            0 
Loop time of 4.13158e-06 on 32 procs for 0 steps with 24000 atoms

116.5% CPU use with 32 MPI tasks x no OpenMP threads

MPI task timing breakdown:
Section |  min time  |  avg time  |  max time  |%varavg| %total
---------------------------------------------------------------
Pair    | 0          | 0          | 0          |   0.0 |  0.00
Bond    | 0          | 0          | 0          |   0.0 |  0.00
Kspace  | 0          | 0          | 0          |   0.0 |  0.00
Neigh   | 0          | 0          | 0          |   0.0 |  0.00
Comm    | 0          | 0          | 0          |   0.0 |  0.00
Output  | 0          | 0          | 0          |   0.0 |  0.00
Modify  | 0          | 0          | 0          |   0.0 |  0.00
Other   |            | 4.132e-06  |            |       |100.00

Nlocal:        750.000 ave         775 max         718 min
Histogram: 1 0 2 2 3 11 8 2 2 1
Nghost:        16092.0 ave       16124 max       16067 min
Histogram: 1 2 2 8 11 3 2 2 0 1
Neighs:        417694.0 ave      429352 max      400319 min
Histogram: 1 0 2 2 3 6 9 5 2 2

Total # of neighbors = 13366218
Ave neighs/atom = 556.92575
Ave special neighs/atom = 1.0000000
Neighbor list builds = 0
Dangerous builds = 0

# ---------------- 工程应变 / 相对宏观应力 ----------------
variable        strainx equal (lx-v_L0)/v_L0
variable        strainy equal (ly-v_L1)/v_L1
variable        strainz equal (lz-v_L2)/v_L2

variable        s1 equal v_strainx
variable        s2 equal v_strainy
variable        s3 equal v_strainz

variable        p1 equal -(c_thermo_press_lmp[1]-v_S0x)/10000.0
variable        p2 equal -(c_thermo_press_lmp[2]-v_S0y)/10000.0
variable        p3 equal -(c_thermo_press_lmp[3]-v_S0z)/10000.0

variable        simtime equal step*dt
variable        ts equal step

# ---------------- 将 (0,0) 行显式写入所有文本文件中 ----------------
print           "TimeStep simtime s1 s2 s3 p1 p2 p3 Px Py Pz" file ${OUTINST} screen no
print           "TimeStep simtime s1 s2 s3 p1 p2 p3 Px Py Pz" file single_ss_y_inst_2pct_cont.txt screen no
print           "0 0.0 0.0 0.0 0.0 0.0 0.0 0.0 ${Px} ${Py} ${Pz}" append ${OUTINST} screen no
print           "0 0.0 0.0 0.0 0.0 0.0 0.0 0.0 ${Px} ${Py} ${Pz}" append single_ss_y_inst_2pct_cont.txt screen no

print           "TimeStep simtime s1 s2 s3 p1 p2 p3 Px Py Pz" file ${OUTAVG1} screen no
print           "TimeStep simtime s1 s2 s3 p1 p2 p3 Px Py Pz" file single_ss_y_avg_2pct_cont.txt screen no
print           "0 0.0 0.0 0.0 0.0 0.0 0.0 0.0 ${Px} ${Py} ${Pz}" append ${OUTAVG1} screen no
print           "0 0.0 0.0 0.0 0.0 0.0 0.0 0.0 ${Px} ${Py} ${Pz}" append single_ss_y_avg_2pct_cont.txt screen no

print           "TimeStep simtime s1 s2 s3 p1 p2 p3 Px Py Pz" file ${OUTAVG2} screen no
print           "TimeStep simtime s1 s2 s3 p1 p2 p3 Px Py Pz" file single_ss_y_avg_2pct_cont_smooth.txt screen no
print           "0 0.0 0.0 0.0 0.0 0.0 0.0 0.0 ${Px} ${Py} ${Pz}" append ${OUTAVG2} screen no
print           "0 0.0 0.0 0.0 0.0 0.0 0.0 0.0 ${Px} ${Py} ${Pz}" append single_ss_y_avg_2pct_cont_smooth.txt screen no

# ---------------- 时间平均输出处理 ----------------
fix             ssout0 all ave/time 100 50 5000   v_simtime v_s1 v_s2 v_s3 v_p1 v_p2 v_p3 v_Px v_Py v_Pz
fix             ssavg1 all ave/time 100 100 10000 v_simtime v_s1 v_s2 v_s3 v_p1 v_p2 v_p3 v_Px v_Py v_Pz
fix             ssavg2 all ave/time 200 100 20000 v_simtime v_s1 v_s2 v_s3 v_p1 v_p2 v_p3 v_Px v_Py v_Pz

# ---------------- 桥接 ave/time 数据用于 fix print ----------------
variable        inst_t  equal f_ssout0[1]
variable        inst_s1 equal f_ssout0[2]
variable        inst_s2 equal f_ssout0[3]
variable        inst_s3 equal f_ssout0[4]
variable        inst_p1 equal f_ssout0[5]
variable        inst_p2 equal f_ssout0[6]
variable        inst_p3 equal f_ssout0[7]
variable        inst_Px equal f_ssout0[8]
variable        inst_Py equal f_ssout0[9]
variable        inst_Pz equal f_ssout0[10]

variable        avg1_t  equal f_ssavg1[1]
variable        avg1_s1 equal f_ssavg1[2]
variable        avg1_s2 equal f_ssavg1[3]
variable        avg1_s3 equal f_ssavg1[4]
variable        avg1_p1 equal f_ssavg1[5]
variable        avg1_p2 equal f_ssavg1[6]
variable        avg1_p3 equal f_ssavg1[7]
variable        avg1_Px equal f_ssavg1[8]
variable        avg1_Py equal f_ssavg1[9]
variable        avg1_Pz equal f_ssavg1[10]

variable        avg2_t  equal f_ssavg2[1]
variable        avg2_s1 equal f_ssavg2[2]
variable        avg2_s2 equal f_ssavg2[3]
variable        avg2_s3 equal f_ssavg2[4]
variable        avg2_p1 equal f_ssavg2[5]
variable        avg2_p2 equal f_ssavg2[6]
variable        avg2_p3 equal f_ssavg2[7]
variable        avg2_Px equal f_ssavg2[8]
variable        avg2_Py equal f_ssavg2[9]
variable        avg2_Pz equal f_ssavg2[10]

# ---------------- 数据记录 ----------------
fix             pout0 all print 5000  "${ts} ${inst_t} ${inst_s1} ${inst_s2} ${inst_s3} ${inst_p1} ${inst_p2} ${inst_p3} ${inst_Px} ${inst_Py} ${inst_Pz}" append ${OUTINST} screen no
fix             pout0 all print 5000  "${ts} ${inst_t} ${inst_s1} ${inst_s2} ${inst_s3} ${inst_p1} ${inst_p2} ${inst_p3} ${inst_Px} ${inst_Py} ${inst_Pz}" append single_ss_y_inst_2pct_cont.txt screen no
fix             pavg1 all print 10000 "${ts} ${avg1_t} ${avg1_s1} ${avg1_s2} ${avg1_s3} ${avg1_p1} ${avg1_p2} ${avg1_p3} ${avg1_Px} ${avg1_Py} ${avg1_Pz}" append ${OUTAVG1} screen no
fix             pavg1 all print 10000 "${ts} ${avg1_t} ${avg1_s1} ${avg1_s2} ${avg1_s3} ${avg1_p1} ${avg1_p2} ${avg1_p3} ${avg1_Px} ${avg1_Py} ${avg1_Pz}" append single_ss_y_avg_2pct_cont.txt screen no
fix             pavg2 all print 20000 "${ts} ${avg2_t} ${avg2_s1} ${avg2_s2} ${avg2_s3} ${avg2_p1} ${avg2_p2} ${avg2_p3} ${avg2_Px} ${avg2_Py} ${avg2_Pz}" append ${OUTAVG2} screen no
fix             pavg2 all print 20000 "${ts} ${avg2_t} ${avg2_s1} ${avg2_s2} ${avg2_s3} ${avg2_p1} ${avg2_p2} ${avg2_p3} ${avg2_Px} ${avg2_Py} ${avg2_Pz}" append single_ss_y_avg_2pct_cont_smooth.txt screen no

# 关键：以固定的 RSTINT 频率输出 restart，生成 .50000.restart 等文件
restart         ${RSTINT} ${CASE}_ycompress_cont_restart.*.restart
restart         50000 ${CASE}_ycompress_cont_restart.*.restart
restart         50000 single_ycompress_cont_restart.*.restart

dump            4 all custom ${DUMPINT} ${CASE}_YCompressCont.*.dump id mol type q x y z fx fy fz c_dis[1] c_dis[2] c_dis[3] c_dis[4] c_myKE c_myPE v_Mise
dump            4 all custom 10000 ${CASE}_YCompressCont.*.dump id mol type q x y z fx fy fz c_dis[1] c_dis[2] c_dis[3] c_dis[4] c_myKE c_myPE v_Mise
dump            4 all custom 10000 single_YCompressCont.*.dump id mol type q x y z fx fy fz c_dis[1] c_dis[2] c_dis[3] c_dis[4] c_myKE c_myPE v_Mise
dump_modify     4 sort id

# ---------------- 动态加载压缩 ----------------
fix             npt_dyn all npt temp ${Tstart} ${Tstop} ${Tdamp} x ${Ptarget} ${Ptarget} ${Pdamp} z ${Ptarget} ${Ptarget} ${Pdamp} drag 1
fix             npt_dyn all npt temp 5 ${Tstop} ${Tdamp} x ${Ptarget} ${Ptarget} ${Pdamp} z ${Ptarget} ${Ptarget} ${Pdamp} drag 1
fix             npt_dyn all npt temp 5 5 ${Tdamp} x ${Ptarget} ${Ptarget} ${Pdamp} z ${Ptarget} ${Ptarget} ${Pdamp} drag 1
fix             npt_dyn all npt temp 5 5 0.1 x ${Ptarget} ${Ptarget} ${Pdamp} z ${Ptarget} ${Ptarget} ${Pdamp} drag 1
fix             npt_dyn all npt temp 5 5 0.1 x 0 ${Ptarget} ${Pdamp} z ${Ptarget} ${Ptarget} ${Pdamp} drag 1
fix             npt_dyn all npt temp 5 5 0.1 x 0 0 ${Pdamp} z ${Ptarget} ${Ptarget} ${Pdamp} drag 1
fix             npt_dyn all npt temp 5 5 0.1 x 0 0 2 z ${Ptarget} ${Ptarget} ${Pdamp} drag 1
fix             npt_dyn all npt temp 5 5 0.1 x 0 0 2 z 0 ${Ptarget} ${Pdamp} drag 1
fix             npt_dyn all npt temp 5 5 0.1 x 0 0 2 z 0 0 ${Pdamp} drag 1
fix             npt_dyn all npt temp 5 5 0.1 x 0 0 2 z 0 0 2 drag 1
fix_modify      npt_dyn temp Tcs press thermo_press_lmp
fix             ndef all deform 1 y erate ${ey_comp} remap x units box
fix             ndef all deform 1 y erate -0.0004 remap x units box

run             ${Nload}
run             1000000
PPPM initialization ...
  using polynomial approximation for long-range coulomb (../kspace.cpp:342)
  G vector (1/distance) = 0.35151497
  grid = 75 144 75
  stencil order = 5
  estimated absolute RMS force accuracy = 0.00016891904
  estimated relative force accuracy = 1.1730778e-05
  using double precision KISS FFT
  3d grid and FFT values/proc = 52900 32400
Per MPI rank memory allocation (min/avg/max) = 34.77 | 35.14 | 35.68 Mbytes
Step Time Temp Press Pxx Pyy Pzz v_Px v_Py v_Pz Lx Ly Lz Xy Xz Yz 
       0            1    4.9496112    414.96369   -13.233715     1293.779      -31.882    -17.62398   -10.707164   -13.624738    40.080979        96.01    40.153894            0            0            0 
    1000         1.05    4.9801936     462.2354   -12.282182    1448.5492   -45.759473    -17.57026   -10.772763    -13.68937    40.077892     96.00808    40.155381            0            0            0 
    2000          1.1    4.9836376    456.35704   -108.15541    1567.0208   -85.983754   -17.468026   -10.814107   -13.719516    40.078047     96.00616    40.154437            0            0            0 
    3000         1.15    4.9969634    404.68399   -105.13222    1447.0748    -124.1371   -17.560295   -10.779457   -13.653312     40.08215    96.004239    40.153393            0            0            0 
    4000          1.2    5.0020374    420.12153   -4.1256692    1314.6484    -46.36861   -17.637404   -10.748085    -13.66292    40.084617    96.002319    40.149812            0            0            0 
    5000         1.25    5.0241804    447.74172   -132.06084    1533.7519   -54.669745   -17.529037   -10.814988   -13.702414    40.088578    96.000399    40.148177            0            0            0 
    6000          1.3    5.0042448    629.35957    28.265035    1807.7006    55.979752   -17.507163   -10.917183   -13.748767    40.082964    95.998479    40.145484            0            0            0 
    7000         1.35    4.9808515    614.10153    154.46288    1562.6349    128.98716   -17.666229   -10.824184   -13.702417    40.081651    95.996559    40.148184            0            0            0 
    8000          1.4    4.9914725    450.89339   -9.8350233    1399.7633   -33.413346   -17.618062   -10.801775    -13.63688    40.084893    95.994638    40.157135            0            0            0 
    9000         1.45     4.979173     622.6683    98.088645     1705.571    68.158049   -17.501642   -10.984937   -13.662301    40.079986    95.992718    40.154132            0            0            0 
   10000          1.5    5.0127472    668.60596    83.049798    1799.9831    126.61164   -17.578312   -11.042421   -13.710304    40.084712    95.990798    40.148611            0            0            0 
   11000         1.55     4.989695    453.39489   -30.484946    1470.8103   -76.325349   -17.633027   -10.901844   -13.669191    40.091161    95.988878    40.150936            0            0            0 
   12000          1.6    5.0467641    430.43271   -111.63973    1417.7747   -11.034157   -17.610129   -10.905854   -13.655661    40.091124    95.986958    40.151246            0            0            0 
   13000         1.65     4.961164    549.24086   -31.368024    1694.2105   -11.309701   -17.563335   -11.017649   -13.695348    40.085338    95.985037     40.15469            0            0            0 
   14000          1.7    4.9818153    486.75812   -19.909647    1564.0322   -80.056342   -17.530616   -11.018367   -13.699311    40.078889    95.983117     40.15926            0            0            0 
   15000         1.75    5.0311502    406.25509   -100.11928    1490.1752   -167.42472   -17.602004   -10.971489   -13.717897    40.079121    95.981197    40.167014            0            0            0 
   16000          1.8    5.0075935    547.82736    11.522531    1619.5471    16.242556   -17.580507   -11.019681   -13.625362    40.078403    95.979277    40.164388            0            0            0 
   17000         1.85    5.0885046    534.47287    16.266111    1582.3964    8.5948194    -17.52979   -11.079408   -13.723052    40.082818    95.977357    40.158084            0            0            0 
   18000          1.9    5.0483119    568.92538   -58.345555    1807.0708   -38.077332   -17.570452   -11.056514   -13.777618    40.091832    95.975436    40.155125            0            0            0 
   19000         1.95     4.979355     705.1819    159.02178    1834.7152    125.65104   -17.637676   -11.005361   -13.633938    40.092355    95.973516    40.148976            0            0            0 
   20000            2    5.0524832    610.65748    39.378774    1683.8221    112.60736   -17.607097   -11.022495   -13.635999    40.098032    95.971596    40.147462            0            0            0 
   21000         2.05    4.9421236    588.18737   -20.775875    1724.3794    64.773846     -17.5571   -11.100847    -13.73989    40.096048    95.969676    40.149317            0            0            0 
   22000          2.1    4.9461772    754.74018      152.744    2070.3571    44.942685   -17.583802   -11.052368   -13.731664    40.085575    95.967756    40.154746            0            0            0 
   23000         2.15    5.0352627     631.9879    28.795778    1795.0416    75.964168   -17.622511   -11.016412   -13.637531    40.086062    95.965835    40.157903            0            0            0 
   24000          2.2    5.0361562    384.05321   -76.693123    1341.5911   -108.87037   -17.571905   -11.083956     -13.6355    40.087086    95.963915    40.163432            0            0            0 
   25000         2.25    4.9739294    492.33747   -104.91052    1677.6406   -91.868524   -17.555732   -11.056927   -13.715815    40.087183    95.961995     40.16344            0            0            0 
   26000          2.3    5.0417589    702.65866    66.297528    2076.6781   -31.153573   -17.604919    -11.01819   -13.709329    40.083751    95.960075    40.159822            0            0            0 
   27000         2.35    4.9775747    448.88978   -171.38465    1608.3636   -86.478572   -17.589474   -11.001642   -13.663546    40.091904    95.958155     40.16092            0            0            0 
   28000          2.4    5.0322804    407.00873   -81.311985    1438.4411     -132.248   -17.610414   -11.022455   -13.678289    40.095136    95.956234    40.163802            0            0            0 
   29000         2.45      5.00897    652.27496    36.599323    1828.1623    95.957155   -17.608157   -11.074923    -13.71895    40.093959    95.954314    40.156582            0            0            0 
   30000          2.5    4.9763553    688.01256    67.308783    1994.0756    6.5227556    -17.65183   -11.011368   -13.698001     40.09147    95.952394    40.159649            0            0            0 
   31000         2.55    5.0362691    624.87841   -39.432799    1820.8292     97.10467   -17.611298   -11.019146   -13.638531    40.091085    95.950474    40.162638            0            0            0 
   32000          2.6    5.0061167    683.53933    201.42089     1783.079    69.952222   -17.530993   -11.078481   -13.699926    40.084267    95.948554    40.167013            0            0            0 
   33000         2.65    5.0113065    666.63269    45.723422    1883.0333    74.992313   -17.537431   -11.064655   -13.717373    40.089363    95.946633    40.166181            0            0            0 
   34000          2.7    5.0047676    659.88515    106.76549    1845.0807    31.701921   -17.674261   -11.056037   -13.695255    40.089061    95.944713    40.160734            0            0            0 
   35000         2.75    4.9715774    631.63647    -102.0176     1959.979    40.796832   -17.629918   -11.037951    -13.63632    40.098552    95.942793    40.155567            0            0            0 
   36000          2.8    4.9986444    598.12144    27.204798    1898.5649   -127.51696   -17.537602   -11.023075   -13.699557     40.09981    95.940873     40.15556            0            0            0 
   37000         2.85    5.0045641    550.50368   -148.11351    1761.2527    42.259199   -17.650997   -11.037138   -13.697886    40.104295    95.938953    40.150497            0            0            0 
   38000          2.9     4.962339    538.24719   -119.23471    1911.4956   -173.65228   -17.754776   -11.069547   -13.677551    40.099046    95.937032    40.160639            0            0            0 
   39000         2.95    5.0747826    605.76153   -72.315632    1943.0512   -49.586942   -17.531051    -11.03451   -13.702298     40.09189    95.935112    40.163961            0            0            0 
   40000            3    5.0438955    620.02715    62.004978    1855.1377   -53.172005   -17.446282   -11.038786   -13.688352    40.087611    95.933192     40.17179            0            0            0 
   41000         3.05    4.9721782    538.89892   -69.667037     1722.525   -32.271817   -17.676027   -11.018134   -13.686976    40.092453    95.931272    40.172964            0            0            0 
   42000          3.1     4.947787    623.36322    58.826509    1817.2189   -2.0815524   -17.670381    -10.96302   -13.705351    40.094004    95.929352    40.165685            0            0            0 
   43000         3.15    4.9415903    720.81689    96.884029    1953.4384     116.0461   -17.523836   -11.022961   -13.702748    40.098919    95.927431    40.160555            0            0            0 
   44000          3.2    5.0029895    665.83169   -19.361043    1949.1903    71.585417   -17.666722    -10.98585   -13.694365    40.104686    95.925511    40.160056            0            0            0 
   45000         3.25    4.9876777    688.75425    50.826363    1952.8975    66.462727   -17.709283   -10.962864   -13.705557    40.098345    95.923591    40.162261            0            0            0 
   46000          3.3    4.9973542    731.94417     57.57153    2130.2894     11.89644   -17.588888   -10.999297   -13.692359    40.091805    95.921671    40.170956            0            0            0 
   47000         3.35    4.9958311    666.41627    2.3705847    2044.8282   -44.068011   -17.528781   -11.013712   -13.691315    40.087517    95.919751    40.175269            0            0            0 
   48000          3.4    4.9936694    660.57208   -12.700094    2012.4569   -14.135811   -17.632885   -10.982327   -13.734476    40.087828     95.91783    40.173525            0            0            0 
   49000         3.45    4.9737822    629.67411   -30.557773    2011.4177   -87.934648   -17.656208   -10.997583   -13.687593    40.093076     95.91591    40.171831            0            0            0 
   50000          3.5    4.9977803     592.5353   -77.809704    1912.5479    -53.21381   -17.572783   -11.116898   -13.673187    40.099985     95.91399    40.165169            0            0            0 
   51000         3.55    5.0142345    650.73767   -33.715998    1983.6766    6.1695938   -17.601077   -11.101987   -13.689755    40.104777     95.91207    40.160453            0            0            0 
   52000          3.6    5.0053202    683.51127   -5.5782091    2076.5982   -16.557834   -17.681097   -11.013781   -13.717324    40.105502     95.91015    40.162124            0            0            0 
   53000         3.65    5.0296492    669.74036    6.8491452    1978.3152    27.960636   -17.671914    -11.05481   -13.669853    40.104047    95.908229    40.164127            0            0            0 
   54000          3.7    5.0224392    737.38487    106.49529    2052.9406    56.667888   -17.638585   -11.119803   -13.672186    40.102425    95.906309     40.16611            0            0            0 
   55000         3.75    5.0056547    772.02976    61.134476    2167.0511    91.870089   -17.597973   -11.140085   -13.716787    40.102599    95.904389     40.16622            0            0            0 
   56000          3.8    5.0105501    768.97009    76.335578    2191.6416    42.824052   -17.625303   -11.073036   -13.710169    40.098486    95.902469    40.167944            0            0            0 
   57000         3.85    4.9281636    718.90448    30.754934      2077.92     51.94731   -17.667888   -11.087702   -13.628142    40.100151    95.900549    40.170077            0            0            0 
   58000          3.9     5.030499    669.77927    23.510722    1980.3762    9.3796531   -17.640309   -11.142055   -13.727176    40.100622    95.898628     40.17074            0            0            0 
   59000         3.95    4.9929695    608.73187   -94.683039    2025.6077   -100.82995   -17.611706   -11.132865   -13.738337    40.099749    95.896708    40.173021            0            0            0 
   60000            4    5.0084605    667.40701   -75.579278    2189.4839   -107.76497   -17.623516   -11.097999   -13.650911    40.099247    95.894788    40.173101            0            0            0 
   61000         4.05    5.0274548    648.99965   -64.604993    2071.7587   -56.267087   -17.636876   -11.138131   -13.658141    40.102954    95.892868    40.169231            0            0            0 
   62000          4.1    4.9605152    581.39043   -126.15098    1976.6439   -102.40061   -17.639839   -11.169676   -13.703204    40.105276    95.890948    40.170492            0            0            0 
   63000         4.15    5.0145567    620.26638   -80.527188    2055.6576    -110.3823   -17.657376   -11.103218   -13.753739    40.102478    95.889027     40.17327            0            0            0 
   64000          4.2    4.9929943    757.31077  -0.84737594     2216.244    60.516812   -17.661796   -11.023124   -13.654915    40.102072    95.887107    40.171735            0            0            0 
   65000         4.25    4.9828129    726.41247    90.037395     2142.641   -49.477899   -17.612639   -11.071185   -13.674215    40.102072    95.885187    40.175762            0            0            0 
   66000          4.3    5.0132553    681.33766   -33.761604    1987.3113    94.393086    -17.62679   -11.167545   -13.735583    40.105667    95.883267    40.173028            0            0            0 
   67000         4.35    5.0507232    759.95666    92.491633    2174.6101    16.737755   -17.637852   -11.122178   -13.668975     40.10443    95.881347    40.176034            0            0            0 
   68000          4.4    4.9513132     891.4992    112.33181    2406.6104    159.47738   -17.671572   -11.054257    -13.67559    40.105768    95.879426    40.170439            0            0            0 
   69000         4.45    5.0175907    812.74362    131.42282    2276.8002    33.925247   -17.627064   -11.120627   -13.725085    40.102826    95.877506    40.171819            0            0            0 
   70000          4.5    4.9713079    735.60917   -94.864044     2233.489    72.153063   -17.641766   -11.145061   -13.753124    40.106724    95.875586    40.174909            0            0            0 
   71000         4.55    5.0071927    754.37871    75.956574    2261.1179   -69.982512   -17.613923   -11.018304   -13.688295    40.099872    95.873666    40.179439            0            0            0 
   72000          4.6    5.0908816    776.77457    37.469377    2296.3252   0.49165016   -17.591231   -11.022355    -13.67865    40.100175    95.871746    40.176322            0            0            0 
   73000         4.65    4.9784683    678.57221   -136.15635      2317.66   -141.77062   -17.667372   -11.104788   -13.717045    40.108982    95.869825    40.176037            0            0            0 
   74000          4.7    5.0315833    666.00717   -158.77199    2220.5491   -59.757885   -17.722218   -11.108592   -13.735477    40.113704    95.867905    40.167848            0            0            0 
   75000         4.75    5.0146411    695.63685   -13.565395    2180.4973   -76.044532   -17.682596   -11.027315   -13.644373     40.11323    95.865985    40.169371            0            0            0 
   76000          4.8    4.9387062    680.50776   -76.904622    2191.3628   -68.975837   -17.625328   -11.026756   -13.670542    40.112597    95.864065    40.172788            0            0            0 
   77000         4.85     5.016973     712.9809   -104.03782    2260.4688   -13.483033   -17.663889   -11.102211   -13.715653    40.109219    95.862145    40.173357            0            0            0 
   78000          4.9    4.9592536    794.93867    25.539818    2376.8777     -13.6749   -17.643589   -11.072162   -13.698041    40.104209    95.860224    40.179683            0            0            0 
   79000         4.95    5.0349963    814.98827    177.13411    2211.0537    60.776847   -17.654387   -11.042753     -13.6507    40.099383    95.858304      40.1834            0            0            0 
   80000            5      4.97821    702.33012   -19.676494    2114.0835    16.552563   -17.623982   -10.949273   -13.720498    40.107004    95.856384    40.181995            0            0            0 
   81000         5.05    4.9549491     797.8376    -46.08562    2435.5982    8.0291824   -17.672162   -11.020147   -13.741801    40.112699    95.854464    40.176867            0            0            0 
   82000          5.1    4.9834141    917.70813    156.03231    2481.7197    119.37258   -17.709045   -11.047073   -13.667759    40.111258    95.852544    40.170401            0            0            0 
   83000         5.15    5.0311374    717.78649   -54.678307    2222.9878   -10.953391   -17.691167   -11.035869   -13.701676    40.116756    95.850623    40.174899            0            0            0 
   84000          5.2    4.9600783    656.84538   -119.78353     2203.937   -109.65738    -17.67502    -11.04589   -13.708937    40.116301    95.848703    40.179343            0            0            0 
   85000         5.25    4.9999173    802.54459   -21.690282    2406.6636    26.627635   -17.646662   -11.044097   -13.742794    40.109437    95.846783    40.177521            0            0            0 
   86000          5.3    5.0359112    773.99866    17.061818    2418.5976   -109.68169   -17.655769   -11.039292   -13.673031    40.106339    95.844863    40.184704            0            0            0 
   87000         5.35    5.0130573    747.31131   -71.381848    2333.4815   -16.178041   -17.655028   -11.025242    -13.69252    40.109908    95.842943    40.182264            0            0            0 
   88000          5.4    4.9989437     762.1848   -34.283828    2365.9151   -41.091031   -17.690578    -11.07711   -13.743933    40.110904    95.841022    40.181405            0            0            0 
   89000         5.45    5.0348736    812.73486   -21.414268    2464.2306  -0.58006864   -17.639523   -11.065547   -13.687041    40.111842    95.839102    40.179971            0            0            0 
   90000          5.5    4.9811082    885.92427    60.099233    2584.7382    16.898448   -17.618222   -11.039949   -13.684821    40.111342    95.837182      40.1777            0            0            0 
   91000         5.55    4.9880035     879.2602   -1.7873887    2562.4183       81.155   -17.729589   -11.073996    -13.71191    40.113202    95.835262    40.177805            0            0            0 
   92000          5.6    4.9714836    758.63773   -43.333411    2424.9185   -101.69766   -17.710879   -11.159533   -13.740547    40.112878    95.833342     40.18427            0            0            0 
   93000         5.65    5.0302097    878.78862     93.06276    2450.5214    96.818807   -17.658253   -11.160449   -13.689545    40.110524    95.831421    40.179461            0            0            0 
   94000          5.7    4.9916339    900.15896    49.770336    2631.5744    23.136137   -17.726047   -11.133898   -13.692412    40.114855    95.829501    40.180604            0            0            0 
   95000         5.75    5.0542036    783.92679   -121.09245    2506.3163   -29.435489   -17.692252   -11.205748   -13.661727    40.118637    95.827581    40.180964            0            0            0 
   96000          5.8    4.9755185    746.33095    13.649486    2285.6428   -56.271529    -17.62338   -11.225628   -13.707441     40.11596    95.825661    40.184133            0            0            0 
   97000         5.85    5.0064278    824.60227    29.353355    2414.3958    34.124032   -17.707811   -11.225264   -13.751214    40.116767    95.823741      40.1837            0            0            0 
   98000          5.9    5.0373363    813.75939   -37.015407    2538.2588   -55.948076   -17.661115   -11.193113   -13.703093    40.115587     95.82182    40.183105            0            0            0 
   99000         5.95    5.0439863     797.7449    -98.29299    2536.0927   -40.542546   -17.631771   -11.173734   -13.688211    40.118042      95.8199    40.183607            0            0            0 
  100000            6    5.0429591    904.23925     143.9676    2525.7802    47.012558   -17.742637   -11.174321   -13.697349    40.115488     95.81798    40.182728            0            0            0 
  101000         6.05    4.9637429    851.91576   -11.187109    2513.8926    57.105016    -17.73639   -11.177778   -13.705049    40.118593     95.81606    40.178797            0            0            0 
  102000          6.1    5.0030706    821.09218   -104.75701    2617.8623   -45.782256   -17.625091   -11.127782   -13.699992    40.120565     95.81414     40.18262            0            0            0 
  103000         6.15     4.939138    952.39288    101.18193    2671.6707    88.345124   -17.653791   -11.193861   -13.712918     40.11414    95.812219    40.183319            0            0            0 
  104000          6.2    4.9737188    861.39129    60.827498    2541.3517    -13.95772   -17.735414   -11.225814   -13.726803    40.113559    95.810299    40.186285            0            0            0 
  105000         6.25    5.0268064    777.39724   -126.02389    2548.4011   -86.156193   -17.672009    -11.19666   -13.678639    40.118338    95.808379    40.188967            0            0            0 
  106000          6.3    5.0487829    882.42995    27.940886    2598.1529    25.192698   -17.642032   -11.205119   -13.659238    40.114837    95.806459    40.187511            0            0            0 
  107000         6.35    4.9852712    872.41383    12.096933    2644.7508   -35.574051   -17.699282   -11.265864   -13.717169    40.117875    95.804539    40.187999            0            0            0 
  108000          6.4    4.9890016      807.024   -87.784755    2578.9086   -66.062615   -17.737482   -11.293618   -13.729973    40.124258    95.802618    40.186115            0            0            0 
  109000         6.45    5.0121561    857.94785    29.530502    2527.3075    21.031155   -17.669784   -11.198832    -13.62988    40.122421    95.800698    40.184484            0            0            0 
  110000          6.5    4.9671099    892.74232    3.8671925     2632.424    45.987724    -17.67078   -11.121952   -13.720219    40.123146    95.798778     40.18528            0            0            0 
  111000         6.55    4.9976109    899.58768    13.783224    2694.0731   -5.0945127   -17.740351   -11.225898   -13.750797    40.123391    95.796858    40.185831            0            0            0 
  112000          6.6    4.9944118    963.53703    21.253092    2786.1972    87.191711   -17.758464   -11.290637   -13.678973    40.119897    95.794938    40.186738            0            0            0 
  113000         6.65    4.9580207    997.29109     120.8691    2854.1347    20.858219   -17.650458   -11.160201   -13.688663    40.113318    95.793017    40.192781            0            0            0 
  114000          6.7    5.0098133    963.60858   0.10038803    2820.8585    73.905941   -17.604636   -11.115511   -13.753232    40.114583    95.791097    40.193233            0            0            0 
  115000         6.75    5.0322808    984.28752    124.25729    2830.2262    2.4325354   -17.705751   -11.296228   -13.720442     40.11484    95.789177     40.19413            0            0            0 
  116000          6.8    4.9656569    941.73463   -6.8010915    2794.3325    41.699315   -17.736003   -11.378503   -13.639836    40.122609    95.787257    40.188763            0            0            0 
  117000         6.85    4.9718549    940.72999    20.707169    2811.5668   -6.0438741   -17.719661   -11.247897   -13.723535    40.124382    95.785337    40.183467            0            0            0 
  118000          6.9     5.006756    889.03093   -84.568167    2748.9465     6.730637    -17.66874   -11.187457   -13.729967    40.130838    95.783416    40.182918            0            0            0 
  119000         6.95    4.9992084    880.59773     -11.0825    2638.8313    18.118036   -17.740995   -11.322201   -13.691868     40.13077    95.781496     40.18496            0            0            0 
  120000            7    4.9931164    859.36787   -6.3286616    2659.0369   -70.558184   -17.743481   -11.371535   -13.688502    40.123795    95.779576     40.18974            0            0            0 
  121000         7.05    4.9815924    939.14927   -32.305974    2903.5688   -49.776936   -17.692056    -11.27188   -13.719437    40.122012    95.777656    40.193447            0            0            0 
  122000          7.1    5.0083627    1011.9669    69.809937    2873.4802    96.635751   -17.691381   -11.236686   -13.703453    40.122494    95.775736    40.192867            0            0            0 
  123000         7.15    5.0141453    909.77931    39.091637    2673.2884    21.031107   -17.756689    -11.28333   -13.706326    40.123486    95.773815    40.193607            0            0            0 
  124000          7.2    4.9671299    910.18098   -39.935863    2850.0645   -75.598233   -17.716501   -11.300001   -13.704835    40.125757    95.771895    40.193734            0            0            0 
  125000         7.25    4.9902662    1143.1375    115.46342    3140.9834    177.00286   -17.635967   -11.253021   -13.722677     40.12399    95.769975    40.188461            0            0            0 
  126000          7.3    5.0186797    1019.2965     87.28212    2922.6905    51.969032   -17.728481    -11.22741   -13.678354    40.125153    95.768055    40.192646            0            0            0 
  127000         7.35    5.0114264    875.21724   -37.707583    2680.3025    -12.93098   -17.775553     -11.2348   -13.703676    40.126098    95.766135     40.19409            0            0            0 
  128000          7.4    5.0200072    1001.3889    88.189401    2885.8241    34.196724   -17.701798   -11.251949   -13.751324     40.12373    95.764214    40.193325            0            0            0 
  129000         7.45    4.9536437    997.27154    6.9597286    2939.1696    49.744543   -17.661509   -11.244285    -13.69882    40.125884    95.762294    40.193173            0            0            0 
  130000          7.5    4.9721789    871.69759   -84.700696    2844.5047   -140.69917   -17.756651   -11.166613   -13.703006    40.126594    95.760374    40.194326            0            0            0 
  131000         7.55    4.9996846    897.72074   -78.030622    2796.8477   -21.564758   -17.758882   -11.210614    -13.71599    40.129543    95.758454    40.190886            0            0            0 
  132000          7.6    5.0182553    875.93165    -61.12511    2803.8678   -110.87416   -17.700966   -11.329197   -13.717712    40.130527    95.756534    40.194699            0            0            0 
  133000         7.65    5.0494086    943.64164   -108.06175    3039.9882   -96.917862   -17.738982    -11.27929   -13.663186    40.130661    95.754613    40.193558            0            0            0 
  134000          7.7    4.9670837    1048.7375   -13.280169     3157.954    5.6000248   -17.724749   -11.210042   -13.722706    40.130908    95.752693    40.190071            0            0            0 
  135000         7.75    5.0378217     957.7303   0.95087855    2846.5789    29.739234   -17.716967   -11.223507   -13.693769    40.131043    95.750773    40.194246            0            0            0 
  136000          7.8    4.9471755    935.77767    27.404045    2790.5621   -6.5903587   -17.745334   -11.342751   -13.712137    40.127068    95.748853    40.200819            0            0            0 
  137000         7.85    4.9871184    1068.3019    49.212868    3130.7155    29.063675   -17.700141    -11.33619   -13.737986    40.124196    95.746933    40.200686            0            0            0 
  138000          7.9    5.0200834    1189.0035    154.53326    3290.2518    126.33129   -17.672086   -11.261468   -13.695237    40.122885    95.745012    40.196659            0            0            0 
  139000         7.95     5.072217    996.86893    6.7769791    2997.9293   -10.028079   -17.776818   -11.268115   -13.692852    40.129542    95.743092     40.19956            0            0            0 
  140000            8    4.9764839    955.32553   -39.998799    2862.1355    47.905164   -17.777365   -11.356682   -13.738476    40.135281    95.741172     40.19506            0            0            0 
  141000         8.05    5.0112639    1060.8255     90.12458    3040.8925    55.574644   -17.685679   -11.317464    -13.71753     40.13381    95.739252     40.19213            0            0            0 
  142000          8.1    4.9444915    981.95494   -103.36865    3141.6428   -88.368773   -17.757339   -11.211963    -13.65645    40.135144    95.737332    40.196962            0            0            0 
  143000         8.15     5.013205    1001.4625   -15.114288    3050.7933   -27.196577   -17.793729   -11.250552   -13.688267    40.129894    95.735411    40.198625            0            0            0 
  144000          8.2    4.9900531    995.94304   -39.615848    3007.3332    24.202937   -17.673152   -11.347013    -13.75007    40.129925    95.733491     40.20085            0            0            0 
  145000         8.25    4.9754606    963.66769   -12.149298    3071.4728   -164.28516   -17.668518   -11.286098    -13.73785    40.127313    95.731571    40.205478            0            0            0 
  146000          8.3    5.0143793    1030.1625   -55.833351    3158.1947   -7.7888934   -17.772622    -11.15482   -13.702886    40.130928    95.729651    40.199155            0            0            0 
  147000         8.35    4.9490614    1094.1064    57.317182    3156.9603    72.062743     -17.7832   -11.237797   -13.689785    40.135722    95.727731    40.195714            0            0            0 
  148000          8.4    5.0342072    1033.0268   -21.984105    3075.9164    49.216127   -17.713119   -11.371045   -13.727258    40.137978     95.72581    40.194945            0            0            0 
  149000         8.45    5.0083476    985.11084   -1.7129478    3028.0516   -66.912074   -17.773855   -11.329041   -13.729522     40.13521     95.72389    40.200415            0            0            0 
  150000          8.5    5.0190729     1113.887    38.289987    3245.5134     61.97296   -17.778032   -11.225429   -13.683491    40.134173     95.72197    40.201978            0            0            0 
  151000         8.55    4.9657951      1112.19    96.584847    3163.6861    80.401783   -17.686891   -11.254967   -13.754745    40.130543     95.72005    40.201885            0            0            0 
  152000          8.6    4.9864972    988.94928   -85.984872    3112.6974   -55.778912   -17.721829   -11.368132   -13.727707    40.135233     95.71813    40.204369            0            0            0 
  153000         8.65    4.9893149    1031.9024    37.721583    3151.4547   -89.367981   -17.787263   -11.306424    -13.66603    40.135959    95.716209    40.203333            0            0            0 
  154000          8.7    4.9963804    1121.5074   -8.2063024    3235.5788    141.22216   -17.792468    -11.27885    -13.72289    40.138338    95.714289    40.195896            0            0            0 
  155000         8.75    4.9647376    1016.2891   -51.890981    3172.4426   -67.567655   -17.711915   -11.250036   -13.738182    40.138704    95.712369    40.201196            0            0            0 
  156000          8.8    4.9865105     1028.555   -80.608548     3217.072   -46.728626   -17.735949   -11.283002    -13.67706    40.135077    95.710449    40.203855            0            0            0 
  157000         8.85    5.0188312    1121.0709    79.366636    3298.4371   -10.493666   -17.726659   -11.266242   -13.726849    40.129048    95.708529    40.206891            0            0            0 
  158000          8.9     4.987361    1095.9714   -20.895838    3302.8016    10.086022   -17.741152   -11.223868   -13.727889    40.132348    95.706608    40.207805            0            0            0 
  159000         8.95    5.0115188    1064.6288    11.361728    3240.7077   -54.101483   -17.770335   -11.281061   -13.692714    40.135417    95.704688    40.205255            0            0            0 
  160000            9    5.0097628    1179.3559     5.471209    3453.8652    82.802846   -17.747736   -11.314352   -13.700891    40.139796    95.702768    40.199176            0            0            0 
  161000         9.05    5.0245528    1191.1092    99.051341    3433.5281    44.861465   -17.753088   -11.317487   -13.758448    40.139474    95.700848    40.201017            0            0            0 
  162000          9.1    5.0409914    1053.2489   -70.565287    3194.6124    39.781791   -17.789377   -11.230657   -13.674937    40.142324    95.698928    40.204456            0            0            0 
  163000         9.15    4.9614506    1084.2359    71.496669    3204.2371   -18.905556    -17.76976   -11.255088   -13.677334    40.136605    95.697007    40.208407            0            0            0 
  164000          9.2    5.0279316    1159.3752    43.966415    3387.8756    50.422875   -17.727104   -11.283643   -13.767273    40.136391    95.695087    40.207117            0            0            0 
  165000         9.25    4.9979503    1119.4562    28.308907    3362.0107    -27.83281   -17.732175   -11.231668   -13.721527    40.138368    95.693167     40.20803            0            0            0 
  166000          9.3    5.0440642    1007.1132    -90.19108    3145.4262   -29.775556   -17.753805    -11.17104   -13.689576    40.144402    95.691247    40.204317            0            0            0 
  167000         9.35    5.0014299    1080.5955   -33.347071    3301.6257   -22.357203   -17.777456   -11.192562   -13.730505    40.144656    95.689327    40.202338            0            0            0 
  168000          9.4    5.0351439    1179.4599   -28.540969    3597.8016   -26.749387    -17.82346   -11.228225   -13.765963    40.139971    95.687406    40.204339            0            0            0 
  169000         9.45     4.986926    1103.8732   -109.29014    3491.0103   -66.000422   -17.737494   -11.199489   -13.679809    40.136548    95.685486    40.208597            0            0            0 
  170000          9.5    4.9908374    1061.7161    -29.97194    3330.2465   -111.02052   -17.723926   -11.191949   -13.722019    40.135969    95.683566    40.215201            0            0            0 
  171000         9.55    4.9931127    1175.6689    63.151323    3456.9725    10.970816   -17.768693   -11.202186    -13.74327    40.137453    95.681646    40.210478            0            0            0 
  172000          9.6    5.0293308      1211.41    4.8113861    3624.3948    9.1619522   -17.783357   -11.209956    -13.68976    40.142827    95.679726    40.204229            0            0            0 
  173000         9.65    5.0409308    1230.8906   -41.968787    3634.9194    103.79179   -17.760618   -11.229497    -13.71482    40.148705    95.677805    40.202832            0            0            0 
  174000          9.7    5.0256463    1247.2708     149.7704    3528.8791    67.323369   -17.795281   -11.276548   -13.730698     40.14411    95.675885    40.206568            0            0            0 
  175000         9.75    4.9985337    1156.1857   -16.360019    3422.4396    66.555306   -17.770635   -11.182736   -13.698723    40.141865    95.673965     40.21083            0            0            0 
  176000          9.8    5.0063144    1166.3059    61.986686    3520.8056    -79.73074   -17.736626   -11.163142   -13.704255    40.135572    95.672045    40.220602            0            0            0 
  177000         9.85    4.9096543    1243.0846    41.951928    3586.7969    104.62909   -17.753787   -11.280011   -13.784234    40.135474    95.670125     40.21456            0            0            0 
  178000          9.9    5.0109284    1149.4154   -6.6578466    3614.0247   -154.99912    -17.78424   -11.280367   -13.687692    40.142043    95.668204    40.213299            0            0            0 
  179000         9.95    5.0274959    1143.5084   -145.89667    3539.7919    40.755341   -17.787584   -11.136858   -13.695152    40.151441    95.666284    40.203594            0            0            0 
  180000           10    4.9675437    1093.5148   -4.9624697    3395.9486   -106.31281   -17.790356   -11.139546   -13.740885    40.149342    95.664364    40.205274            0            0            0 
  181000        10.05    4.9757422    1113.1767   -182.81703    3519.1596    7.3128536   -17.802195   -11.246294   -13.720432    40.152736    95.662444     40.20473            0            0            0 
  182000         10.1    4.9424893    1227.3275    58.721169    3739.9747   -112.60252   -17.746411   -11.275589   -13.701018    40.142455    95.660524    40.212665            0            0            0 
  183000        10.15    4.9695941    1228.4238    18.318141     3566.199    104.91869   -17.766514    -11.20352   -13.751856    40.140548    95.658603    40.214448            0            0            0 
  184000         10.2    5.0381378    1189.0317    97.774799    3536.7749    -63.35561   -17.828134   -11.189404   -13.736672    40.140837    95.656683    40.219772            0            0            0 
  185000        10.25    5.0258782    1283.7736    8.0890857    3663.1442    184.21765   -17.732017   -11.226086   -13.704181    40.145317    95.654763    40.210881            0            0            0 
  186000         10.3    4.9921986    1315.1454    149.53382    3794.9453    5.0783448   -17.773206   -11.207425   -13.699824    40.145945    95.652843     40.21332            0            0            0 
  187000        10.35    5.0350669    1293.8217   -34.553919     3812.879     107.2711   -17.863677   -11.184243   -13.728634    40.150855    95.650923     40.21043            0            0            0 
  188000         10.4    5.0264003    1272.7558    93.085726    3719.0047    10.250881   -17.767562   -11.157543   -13.776343    40.144971    95.649002    40.213923            0            0            0 
  189000        10.45    5.0012308    1133.1335   -123.12857    3511.6726    15.019979    -17.74995    -11.16921   -13.701863    40.148326    95.647082    40.217561            0            0            0 
  190000         10.5     4.971037    1170.9305    71.285156    3564.9003   -119.26038    -17.80173   -11.240373   -13.703398    40.142267    95.645162    40.221344            0            0            0 
  191000        10.55    4.9463075    1194.8286    -145.1002    3746.5517   -12.832617   -17.794586    -11.19076   -13.718626    40.145763    95.643242    40.218164            0            0            0 
  192000         10.6    4.9904794     1222.531    8.8474961    3769.2697   -106.41695   -17.754191   -11.180758   -13.767771      40.1447    95.641322    40.220551            0            0            0 
  193000        10.65    4.9962928    1185.8721   -69.285087    3617.4978    13.531691   -17.775961   -11.265596   -13.690896    40.149849    95.639401    40.215958            0            0            0 
  194000         10.7    5.0064049     1165.588   -29.419122    3636.2876   -106.02725   -17.842898   -11.268646   -13.693281    40.151314    95.637481    40.216789            0            0            0 
  195000        10.75    5.0351445    1320.6956   -9.1133744     3938.591    36.776021   -17.793846   -11.247604   -13.763744    40.151925    95.635561    40.212266            0            0            0 
  196000         10.8    5.0050736     1374.554    43.869581     4038.342    45.584182   -17.748338   -11.254956   -13.733159     40.15167    95.633641    40.210977            0            0            0 
  197000        10.85    4.9935329    1278.7008    42.132702     3798.105  0.023640937   -17.813417   -11.289195   -13.696885    40.152043    95.631721    40.213192            0            0            0 
  198000         10.9    4.9986911     1221.988   -6.4578401    3612.7712    63.768641   -17.865044   -11.280359   -13.745721    40.154641      95.6298    40.213557            0            0            0 
  199000        10.95    5.0093513    1313.6158     56.21542    3831.9455    56.853166   -17.814474    -11.22035   -13.723253    40.151588     95.62788    40.215519            0            0            0 
  200000           11    5.0037287    1410.7038    62.521156    4147.0063    26.739672    -17.75871   -11.220918   -13.729435    40.147714     95.62596    40.218126            0            0            0 
  201000        11.05    5.0266548    1311.6528    11.301484    3964.0851   -36.285966   -17.778651    -11.24373   -13.719846    40.149598     95.62404    40.220218            0            0            0 
  202000         11.1    4.9731812    1222.9717   -72.488562    3718.4151     27.16542   -17.849871   -11.299256   -13.673389    40.155614     95.62212    40.216341            0            0            0 
  203000        11.15    5.0079971    1237.1426   -26.431715    3806.1972   -64.183334   -17.850141   -11.250599   -13.771106    40.154389    95.620199     40.21912            0            0            0 
  204000         11.2    4.9520609    1264.7008   -33.390534    3909.2442   -77.608572   -17.753908   -11.216547   -13.759181    40.151741    95.618279    40.221603            0            0            0 
  205000        11.25    5.0240594    1239.9755   -84.877465    3807.7624    1.1915166   -17.785997   -11.250671   -13.656014    40.152112    95.616359    40.221729            0            0            0 
  206000         11.3    4.9639845    1178.8755    -80.99745    3713.1212   -91.327641   -17.882702   -11.289464   -13.706803    40.151419    95.614439    40.227782            0            0            0 
  207000        11.35    4.9907426    1255.1505    66.164735    3780.9429   -77.524233   -17.774202   -11.251058   -13.807591    40.147557    95.612519    40.228197            0            0            0 
  208000         11.4    5.0150053    1335.2179   -11.362552    3961.1366     60.01688   -17.702522   -11.202859   -13.699037    40.153516    95.610598    40.220945            0            0            0 
  209000        11.45    5.0174067    1403.0662    33.632639    4109.7948    69.935782   -17.841237   -11.204496   -13.685676    40.156182    95.608678    40.217255            0            0            0 
  210000         11.5    5.0438625    1398.0023    65.520002    4033.1136    99.581743   -17.907717   -11.246351   -13.767716    40.157123    95.606758    40.217359            0            0            0 
  211000        11.55     4.966128    1401.2635    110.83362    4038.4618    58.644857   -17.817967   -11.221816   -13.745881    40.154394    95.604838    40.221144            0            0            0 
  212000         11.6    5.0161066    1427.5364    2.9172301    4169.0349     114.7955   -17.721928   -11.191863   -13.726346    40.151327    95.602918    40.223037            0            0            0 
  213000        11.65    5.0449767    1389.6967    100.57744    4156.5004   -83.831306   -17.805596   -11.227079   -13.714676    40.147758    95.600997    40.229234            0            0            0 
  214000         11.7    4.9244341    1318.4008   -110.45167    4070.5344  -0.73793035   -17.833265   -11.306483   -13.724862    40.155783    95.599077    40.223479            0            0            0 
  215000        11.75    5.0343394    1299.0659  -0.47132412    4007.2456   -105.40902   -17.849446   -11.318982   -13.753707    40.157731    95.597157    40.221375            0            0            0 
  216000         11.8    4.9636734    1292.5894   -152.04776    4027.8703    6.1005647   -17.803591   -11.259772   -13.673229    40.165331    95.595237    40.217567            0            0            0 
  217000        11.85     4.981175    1338.2002    12.842546    4117.5291   -111.61624   -17.838956   -11.328669   -13.752953    40.162704    95.593317       40.219            0            0            0 
  218000         11.9    4.9699285    1313.3704   -144.04729    4016.0132    72.274527    -17.89231   -11.334815   -13.726864    40.164996    95.591396     40.21818            0            0            0 
  219000        11.95    5.0238875     1297.342    107.29858    3905.6262    -116.7513    -17.83461   -11.301873   -13.723072    40.156119    95.589476    40.229429            0            0            0 
  220000           12    5.0218258     1353.804   -60.245038    4006.0437     119.7959    -17.73703   -11.296267   -13.699365    40.155888    95.587556    40.227532            0            0            0 
  221000        12.05    5.0067108    1405.3092    115.66897    4238.4793   -134.04198   -17.859484   -11.310806   -13.738241    40.151374    95.585636    40.232515            0            0            0 
  222000         12.1    5.0210462    1464.1792   -46.014786    4249.9345    192.77389   -17.874543   -11.277784    -13.75485     40.15813    95.583716    40.223999            0            0            0 
  223000        12.15    5.0285905    1422.4491    178.95806    4136.3891   -43.850759   -17.776645   -11.280671   -13.706073     40.15393    95.581795    40.230312            0            0            0 
  224000         12.2    4.9975887    1353.7065   -126.53793     4133.666     58.16527   -17.791378    -11.27054   -13.747152     40.16136    95.579875    40.226844            0            0            0 
  225000        12.25    4.9889253    1450.8705    110.99076     4301.714   -55.958847   -17.866566   -11.224495   -13.746792    40.158466    95.577955    40.225694            0            0            0 
  226000         12.3    5.0195708     1406.569   -36.436897    4150.0283    110.24779   -17.863432   -11.280303    -13.75178     40.16269    95.576035    40.223491            0            0            0 
  227000        12.35    4.9842833    1310.4374   -5.7825072    4080.5467   -139.32182   -17.799382   -11.314362   -13.712303    40.161219    95.574115    40.231211            0            0            0 
  228000         12.4    5.0575801    1400.2743    -56.39085    4191.1649    70.214813   -17.803223   -11.295312   -13.722481    40.163411    95.572194    40.224241            0            0            0 
  229000        12.45    4.9882475    1403.3967    23.816264    4285.5679   -95.048451   -17.905626   -11.254523   -13.765379      40.1628    95.570274    40.228541            0            0            0 
  230000         12.5    4.9721947    1404.6013   -51.720131      4237.42    32.300048   -17.846651   -11.253087   -13.710764    40.162347    95.568354    40.229124            0            0            0 
  231000        12.55    4.9644359    1407.5826  -0.30173643    4242.3368   -15.120314    -17.77639   -11.266755   -13.716847    40.160239    95.566434    40.231548            0            0            0 
  232000         12.6    5.0128145    1454.0952    14.011174    4376.7804   -24.334863    -17.84149   -11.259614   -13.762982    40.161411    95.564514    40.231219            0            0            0 
  233000        12.65    5.0041519    1471.1589    50.359214    4327.8901    39.362294   -17.872215    -11.23728   -13.770082    40.161208    95.562593    40.229765            0            0            0 
  234000         12.7    4.9980317    1424.2208     16.39471    4182.4117    77.926921   -17.791624   -11.239995   -13.721753    40.161963    95.560673    40.230013            0            0            0 
  235000        12.75    5.0232605    1427.0606     20.47392    4251.2616    13.636732   -17.805804   -11.240494   -13.707341    40.163674    95.558753    40.231051            0            0            0 
  236000         12.8    5.0019051    1509.6167    57.758875    4486.4244   -11.167749   -17.916722    -11.34546   -13.736405    40.163879    95.556833    40.229957            0            0            0 
  237000        12.85    4.9669983    1540.4003    29.279243    4515.9142    80.219753    -17.88669   -11.398102   -13.779053    40.162985    95.554913    40.228114            0            0            0 
  238000         12.9    5.0274065    1426.0479    -64.36695    4413.5062   -66.841918   -17.790506   -11.252679   -13.737788    40.165334    95.552992    40.231732            0            0            0 
  239000        12.95    4.9784641    1404.8377   -29.398027    4287.2519   -39.205049   -17.878359    -11.25294   -13.667137    40.166122    95.551072    40.231439            0            0            0 
  240000           13    5.0162704    1348.2426   -79.426112    4225.2652   -96.925027    -17.89817   -11.345048   -13.738682    40.166574    95.549152    40.234379            0            0            0 
  241000        13.05    5.0234303    1439.5852   -66.790288    4434.1716   -44.460543   -17.807973   -11.357188   -13.784016    40.165062    95.547232    40.232869            0            0            0 
  242000         13.1    5.0112417    1470.7732   -31.540126    4474.5544   -26.501486   -17.805058   -11.278393   -13.697994    40.166007    95.545312    40.232048            0            0            0 
  243000        13.15    4.9785402    1367.8329   -3.4837981    4176.4852   -65.401372   -17.859634   -11.273158   -13.699454    40.167452    95.543391    40.237163            0            0            0 
  244000         13.2    5.0349534     1430.062   -48.369136    4309.2842    33.508304   -17.903645   -11.331011     -13.7836    40.167262    95.541471    40.234621            0            0            0 
  245000        13.25    4.9928057    1586.1002    117.23146    4620.0047    25.217768   -17.825582    -11.33593   -13.798635    40.163757    95.539551    40.232641            0            0            0 
  246000         13.3    5.0005754    1556.9397    8.1560532    4571.2026    95.674302   -17.832433   -11.327639   -13.682746    40.170594    95.537631    40.230629            0            0            0 
  247000        13.35    5.0528125    1471.9183     50.97621    4389.7536   -20.834718    -17.87402   -11.266727   -13.696805     40.16975    95.535711    40.233612            0            0            0 
  248000         13.4    4.9938905     1556.301   -5.6289335     4587.217    91.498662   -17.921349   -11.285155   -13.783216    40.169758     95.53379    40.231706            0            0            0 
  249000        13.45    4.9482303    1587.3886    93.896453    4672.6985  -0.28786118   -17.833543   -11.363127   -13.761284    40.166328     95.53187    40.234917            0            0            0 
  250000         13.5    4.9559376    1443.7791   -125.91235      4456.35    5.0482876   -17.820753   -11.370396   -13.686422    40.171296     95.52995    40.235351            0            0            0 
  251000        13.55    4.9715403    1478.8615    54.173607     4488.459   -101.87588   -17.861542   -11.266205   -13.715286    40.166509     95.52803    40.240343            0            0            0 
  252000         13.6     5.031424    1597.2126   -20.387743    4715.0565    101.13536   -17.883838   -11.238165   -13.814044     40.16743     95.52611    40.233984            0            0            0 
  253000        13.65    5.0264868    1380.7673   -117.54343    4457.9565   -193.92286   -17.872586   -11.323263   -13.741973    40.169775    95.524189    40.239426            0            0            0 
  254000         13.7    5.0203508    1445.9801   -61.549107    4378.5572    25.086157   -17.812318   -11.333168   -13.676206    40.169531    95.522269    40.238412            0            0            0 
  255000        13.75    4.9613158     1578.404    127.18428     4610.397    1.7970583   -17.899919   -11.222505   -13.758516    40.164637    95.520349    40.241066            0            0            0 
[...]
  937000        47.85    5.0386454    6489.8697     42.84172    19461.015   -29.937228   -18.560941   -12.908451   -13.870318    40.411585    94.210773    40.497131            0            0            0 
  938000         47.9    4.9853021    6529.1285    5.2820721    19479.118    107.26322   -18.544631   -12.814075   -13.901435     40.41517    94.208852    40.494898            0            0            0 
  939000        47.95    5.0322183    6523.0496   -2.6192099    19556.324    19.802243   -18.557245   -12.732653   -13.896678    40.415405    94.206932    40.494812            0            0            0 
  940000           48    4.9600783    6536.9992     72.86572    19573.234    -30.79381   -18.587284   -12.732509   -13.893756    40.413554    94.205012    40.496825            0            0            0 
  941000        48.05    4.9989602    6560.6396  -0.53543906    19622.731    64.013606    -18.54052   -12.815629   -13.879387    40.414463    94.203092    40.498589            0            0            0 
  942000         48.1    5.0156766    6537.2058   -17.300787    19644.055   -10.784492   -18.521748   -12.889905   -13.890038    40.414316    94.201172    40.498606            0            0            0 
  943000        48.15    4.9621245    6546.8863   -50.836538    19719.138   -23.364718   -18.587403   -12.898942   -13.907486    40.415581    94.199251    40.497474            0            0            0 
  944000         48.2    5.0322548    6539.0017    26.570972    19693.479   -98.701837   -18.585314   -12.902159   -13.902573    40.413979    94.197331    40.501041            0            0            0 
  945000        48.25    4.9830266    6504.5273   -187.67941     19704.48    1.0440323   -18.494115   -12.897338   -13.880753    40.416501    94.195411    40.500722            0            0            0 
  946000         48.3    5.0071781    6559.5938   -20.081572    19791.322   -88.153104   -18.581386    -12.83257   -13.938745    40.411679    94.193491    40.502403            0            0            0 
  947000        48.35    5.0177183    6579.4253   -29.889232    19836.176   -63.691234   -18.605529   -12.724202   -13.872012    40.414108    94.191571    40.502476            0            0            0 
  948000         48.4    4.9750199    6551.5853   -52.755077    19834.757    -122.9484   -18.512495   -12.639289   -13.900764    40.416881     94.18965     40.50325            0            0            0 
  949000        48.45     5.009398    6658.2934   -80.608911    19976.728    83.137099   -18.558401   -12.569416   -13.915972    40.419549     94.18773    40.496586            0            0            0 
  950000         48.5     5.005489    6679.0909    60.130457    19991.756   -10.266101    -18.61534   -12.539336   -13.886643    40.420444     94.18581    40.496988            0            0            0 
  951000        48.55    5.0085059      6609.35   -43.453216    19939.507   -63.682379   -18.607653   -12.590384   -13.895488    40.422209     94.18389    40.500387            0            0            0 
  952000         48.6    5.0420339    6707.0935   -1.2635871    20075.702    51.174685   -18.500129   -12.734266   -13.872226     40.41762     94.18197    40.500976            0            0            0 
  953000        48.65    4.9840682    6753.3144    40.187114    20135.318    88.745679   -18.558201   -12.876063   -13.898063    40.416684    94.180049    40.501521            0            0            0 
  954000         48.7    4.9885723    6672.9054    23.102328    20078.398   -78.534739   -18.596804   -12.969612   -13.899968    40.418294    94.178129    40.505653            0            0            0 
  955000        48.75     5.025906    6751.5764    21.819187    20185.606    51.569775   -18.561479   -13.051678   -13.902975    40.417845    94.176209    40.503228            0            0            0 
  956000         48.8    4.9805379    6778.9732    23.157191    20223.342    94.756471   -18.545788   -13.074931   -13.870842    40.419078    94.174289    40.503059            0            0            0 
  957000        48.85    4.9824544    6726.1772  -0.71314872    20205.877   -22.313706   -18.566644   -12.982836   -13.942473    40.420296    94.172369     40.50554            0            0            0 
  958000         48.9    5.0026286    6798.6598    69.218734    20336.189   -5.0687613   -18.573805   -12.840739   -13.872861    40.417348    94.170448    40.506316            0            0            0 
  959000        48.95    5.0155562    6772.2088   -18.301772    20322.774    16.424255   -18.527472   -12.752453   -13.876702    40.420954    94.168528    40.506226            0            0            0 
  960000           49    4.9927879    6761.9548   -57.841491    20390.424   -42.424993   -18.551328   -12.731293   -13.937849    40.423046    94.166608    40.503503            0            0            0 
  961000        49.05     5.008403    6821.6205    4.6380637    20459.434    5.0526479   -18.615847   -12.707381   -13.877758    40.422757    94.164688    40.501325            0            0            0 
  962000         49.1    4.9718932    6737.2823   -47.787238     20355.43   -91.483399   -18.589475   -12.698747   -13.907309    40.424769    94.162768    40.507098            0            0            0 
  963000        49.15    4.9542038    6805.8322    -99.56117    20515.009    6.4311846    -18.52896   -12.725072    -13.89659    40.421951    94.160847    40.505956            0            0            0 
  964000         49.2    5.0077108    6885.1918    42.948179     20612.64    4.2891738   -18.579953   -12.718644   -13.891604    40.417262    94.158927    40.507625            0            0            0 
  965000        49.25    4.9997767    6786.2504   -21.973675    20471.834   -86.795549   -18.568417   -12.696473   -13.906833    40.420819    94.157007    40.514068            0            0            0 
  966000         49.3    5.0064169    6886.0327    28.784359    20641.129   -7.5305484   -18.571228   -12.756032   -13.921679    40.420314    94.155087    40.510015            0            0            0 
  967000        49.35    4.9953415     6917.103   -31.920249     20707.28    80.259231   -18.576652   -12.819976   -13.841468    40.425043    94.153167    40.503636            0            0            0 
  968000         49.4    4.9978532    6894.8678     45.00014    20659.315   -15.384739    -18.59864   -12.773439   -13.926553    40.427035    94.151246    40.506131            0            0            0 
  969000        49.45    5.0213561    6961.1211    56.365922    20800.354    30.983695   -18.550551   -12.632857   -13.918039    40.425748    94.149326     40.50545            0            0            0 
  970000         49.5    5.0167093    6980.9171    31.708676    20868.854    46.505416   -18.596866   -12.498971   -13.887568    40.423698    94.147406    40.506638            0            0            0 
  971000        49.55    4.9913737    6979.5513   -15.763157    20884.279    74.437819   -18.563497   -12.454986   -13.897011    40.423115    94.145486    40.509215            0            0            0 
  972000         49.6    5.0186557    7014.4458    124.58423    20937.847   -14.800199   -18.549993   -12.517703   -13.908562    40.419457    94.143566    40.513569            0            0            0 
  973000        49.65     5.061317    6931.5614    -21.12446    20843.816   -23.675642   -18.577542    -12.69921   -13.904787    40.425663    94.141645    40.512893            0            0            0 
  974000         49.7    5.0549229    6969.6393   -35.327617    20924.564    24.045314    -18.57207   -12.885094     -13.9002    40.427455    94.139725    40.508658            0            0            0 
  975000        49.75    5.0023141    7001.6099   -12.131024    20982.177    39.105766    -18.56609   -12.946708    -13.88293    40.428116    94.137805    40.508134            0            0            0 
  976000         49.8     4.982913    6904.5164   -47.311357    20898.797   -133.61495   -18.569889   -12.916776   -13.943849    40.429599    94.135885    40.513027            0            0            0 
  977000        49.85     5.001325    6996.3932   -23.609998    21044.031   -26.929811   -18.634372   -12.902147   -13.898695    40.428467    94.133965    40.510109            0            0            0 
  978000         49.9    4.9949359    7035.3429    -74.62913    21123.435      61.5651   -18.583325   -12.922429   -13.862736    40.427981    94.132044    40.510043            0            0            0 
  979000        49.95    4.9833095    6979.0519     9.669337    21075.876   -144.03162   -18.518933   -12.966594   -13.905765     40.42625    94.130124    40.516144            0            0            0 
  980000           50     4.989328    7035.4606   -41.663038     21154.28   -1.9396999   -18.628396   -13.056241   -13.930451    40.428682    94.128204     40.51274            0            0            0 
  981000        50.05    4.9840826    7119.5118    60.570602    21257.301    44.985157   -18.602565   -13.154743   -13.877463    40.427473    94.126284    40.512438            0            0            0 
  982000         50.1    5.0067672    7064.1135   -79.576539    21221.734      54.5095   -18.532694    -13.18863   -13.881411    40.430618    94.124364    40.512625            0            0            0 
  983000        50.15    5.0407668     7127.191    131.86085    21320.597   -66.571226   -18.597812   -13.111146   -13.924493    40.426737    94.122443    40.515978            0            0            0 
  984000         50.2    4.9704177    7148.9479    4.6171269    21336.623    109.90474   -18.598934   -12.969713   -13.909829     40.43018    94.120523    40.513268            0            0            0 
  985000        50.25    5.0191313    7164.1893    17.183984    21421.566    58.112087   -18.560509    -12.84757   -13.913912     40.42752    94.118603    40.515297            0            0            0 
  986000         50.3    4.9780155    7155.2737    53.857651    21446.321   -30.063411   -18.578994   -12.789114   -13.896551    40.426603    94.116683    40.518197            0            0            0 
  987000        50.35      5.01438    7178.1653    51.917808    21459.793    27.077499   -18.580647   -12.774183   -13.911776    40.429466    94.114763    40.515867            0            0            0 
  988000         50.4     4.975307    7151.2678   -43.226855    21498.443    2.9274048   -18.563451   -12.789941   -13.908977    40.431687    94.112842       40.515            0            0            0 
  989000        50.45    4.9701331    7151.3054   -59.169982      21542.5   -25.129891   -18.591674   -12.812989   -13.867683    40.434196    94.110922    40.513711            0            0            0 
  990000         50.5    4.9875039    7203.0184    52.683174    21597.661   -37.005416   -18.599534   -12.824195    -13.91672    40.434764    94.109002    40.511876            0            0            0 
  991000        50.55    4.9700011    7156.5891   -115.02514    21577.534    11.560291   -18.592603   -12.793287   -13.928548    40.437427    94.107082    40.511998            0            0            0 
  992000         50.6    5.0279158    7116.3669   -101.41903    21586.473   -131.63353    -18.63972   -12.764138   -13.886495     40.43388    94.105162    40.519843            0            0            0 
  993000        50.65    4.9996002    7255.3567     38.58664    21728.326    3.4269018    -18.56448   -12.763048   -13.913169    40.429979    94.103241    40.517918            0            0            0 
  994000         50.7    5.0469525    7223.5683   -5.4158384    21719.115   -38.673856   -18.545338   -12.745065   -13.894451    40.431149    94.101321    40.521322            0            0            0 
  995000        50.75      4.98312    7177.4222   -98.787945    21673.126    -37.76513   -18.623557   -12.731096   -13.926933    40.433262    94.099401    40.522551            0            0            0 
  996000         50.8    5.0042031    7318.9951      66.3298    21892.966     2.012788   -18.628438   -12.748862   -13.906337    40.432335    94.097481    40.517933            0            0            0 
  997000        50.85    4.9568913     7347.154     64.63008     21889.73    91.366961   -18.552068    -12.78225   -13.894354    40.435002    94.095561    40.516656            0            0            0 
  998000         50.9     4.953963    7287.6289   -26.508033    21878.333    15.329366   -18.590019    -12.80751   -13.907976     40.43552     94.09364    40.521581            0            0            0 
  999000        50.95    4.9742088    7383.1376    53.863562    22022.175    77.682987   -18.611399   -12.799095   -13.923842    40.432246     94.09172    40.519969            0            0            0 
 1000000           51    4.9779157    7354.6315    92.729439    21999.728   -24.258734   -18.591534   -12.799355   -13.893114    40.433279      94.0898    40.522278            0            0            0 
Loop time of 51109.7 on 32 procs for 1000000 steps with 24000 atoms

Performance: 0.085 ns/day, 283.943 hours/ns, 19.566 timesteps/s
100.0% CPU use with 32 MPI tasks x no OpenMP threads

MPI task timing breakdown:
Section |  min time  |  avg time  |  max time  |%varavg| %total
---------------------------------------------------------------
Pair    | 18284      | 18668      | 19196      | 119.1 | 36.53
Bond    | 11.591     | 12.218     | 13.291     |  11.2 |  0.02
Kspace  | 12081      | 12601      | 13011      | 143.4 | 24.65
Neigh   | 0.37084    | 0.3716     | 0.37268    |   0.1 |  0.00
Comm    | 1664.5     | 1698.9     | 1734.2     |  46.6 |  3.32
Output  | 1.5143     | 3.5052     | 5.1315     |  73.1 |  0.01
Modify  | 14441      | 15958      | 17927      |1066.8 | 31.22
Other   |            | 2168       |            |       |  4.24

Nlocal:        750.000 ave         785 max         720 min
Histogram: 2 0 5 5 8 4 4 2 0 2
Nghost:        16092.0 ave       16122 max       16057 min
Histogram: 2 0 2 3 5 8 5 4 1 2
Neighs:        421923.0 ave      442164 max      402959 min
Histogram: 1 2 2 6 6 7 4 2 0 2

Total # of neighbors = 13501550
Ave neighs/atom = 562.56458
Ave special neighs/atom = 1.0000000
Neighbor list builds = 20
Dangerous builds = 0

# ---------------- 最终输出 ----------------
unfix           ndef
unfix           npt_dyn
unfix           fmom2
unfix           pout0
unfix           pavg1
unfix           pavg2
unfix           ssout0
unfix           ssavg1
unfix           ssavg2
undump          4

run             0
PPPM initialization ...
  using polynomial approximation for long-range coulomb (../kspace.cpp:342)
  G vector (1/distance) = 0.35149163
  grid = 75 144 75
  stencil order = 5
  estimated absolute RMS force accuracy = 0.0001694386
  estimated relative force accuracy = 1.1766859e-05
  using double precision KISS FFT
  3d grid and FFT values/proc = 57132 32400
Per MPI rank memory allocation (min/avg/max) = 33.28 | 33.65 | 34.20 Mbytes
Step Time Temp Press Pxx Pyy Pzz v_Px v_Py v_Pz Lx Ly Lz Xy Xz Yz 
 1000000           51    4.9779153    7354.6891    92.776137    21999.806   -24.210592   -18.591534   -12.799355   -13.893114    40.433279      94.0898    40.522278            0            0            0 
Loop time of 4.52466e-06 on 32 procs for 0 steps with 24000 atoms

119.5% CPU use with 32 MPI tasks x no OpenMP threads

MPI task timing breakdown:
Section |  min time  |  avg time  |  max time  |%varavg| %total
---------------------------------------------------------------
Pair    | 0          | 0          | 0          |   0.0 |  0.00
Bond    | 0          | 0          | 0          |   0.0 |  0.00
Kspace  | 0          | 0          | 0          |   0.0 |  0.00
Neigh   | 0          | 0          | 0          |   0.0 |  0.00
Comm    | 0          | 0          | 0          |   0.0 |  0.00
Output  | 0          | 0          | 0          |   0.0 |  0.00
Modify  | 0          | 0          | 0          |   0.0 |  0.00
Other   |            | 4.525e-06  |            |       |100.00

Nlocal:        750.000 ave         785 max         720 min
Histogram: 2 0 5 5 8 4 4 2 0 2
Nghost:        16092.0 ave       16122 max       16057 min
Histogram: 2 0 2 3 5 8 5 4 1 2
Neighs:        421923.0 ave      442164 max      402959 min
Histogram: 1 2 2 6 6 7 4 2 0 2

Total # of neighbors = 13501550
Ave neighs/atom = 562.56458
Ave special neighs/atom = 1.0000000
Neighbor list builds = 0
Dangerous builds = 0
write_data      ${TAG}_end.data pair ij
write_data      single_ycompress_cont_2pct_end.data pair ij
System init for write_data ...
PPPM initialization ...
  using polynomial approximation for long-range coulomb (../kspace.cpp:342)
  G vector (1/distance) = 0.35149163
  grid = 75 144 75
  stencil order = 5
  estimated absolute RMS force accuracy = 0.0001694386
  estimated relative force accuracy = 1.1766859e-05
  using double precision KISS FFT
  3d grid and FFT values/proc = 57132 32400
write_restart   ${TAG}_end.restart
write_restart   single_ycompress_cont_2pct_end.restart
System init for write_restart ...
PPPM initialization ...
  using polynomial approximation for long-range coulomb (../kspace.cpp:342)
  G vector (1/distance) = 0.35149163
  grid = 75 144 75
  stencil order = 5
  estimated absolute RMS force accuracy = 0.0001694386
  estimated relative force accuracy = 1.1766859e-05
  using double precision KISS FFT
  3d grid and FFT values/proc = 57132 32400

dump            5 all custom 1 ${TAG}_end.dump id mol type q x y z fx fy fz c_dis[1] c_dis[2] c_dis[3] c_dis[4] c_myKE c_myPE v_Mise
dump            5 all custom 1 single_ycompress_cont_2pct_end.dump id mol type q x y z fx fy fz c_dis[1] c_dis[2] c_dis[3] c_dis[4] c_myKE c_myPE v_Mise
dump_modify     5 sort id first yes
run             0
PPPM initialization ...
  using polynomial approximation for long-range coulomb (../kspace.cpp:342)
  G vector (1/distance) = 0.35149163
  grid = 75 144 75
  stencil order = 5
  estimated absolute RMS force accuracy = 0.0001694386
  estimated relative force accuracy = 1.1766859e-05
  using double precision KISS FFT
  3d grid and FFT values/proc = 57132 32400
Per MPI rank memory allocation (min/avg/max) = 35.27 | 35.65 | 36.19 Mbytes
Step Time Temp Press Pxx Pyy Pzz v_Px v_Py v_Pz Lx Ly Lz Xy Xz Yz 
 1000000           51    4.9779153    7354.6891    92.776137    21999.806   -24.210592   -18.591534   -12.799355   -13.893114    40.433279      94.0898    40.522278            0            0            0 
Loop time of 4.00585e-06 on 32 procs for 0 steps with 24000 atoms

116.2% CPU use with 32 MPI tasks x no OpenMP threads

MPI task timing breakdown:
Section |  min time  |  avg time  |  max time  |%varavg| %total
---------------------------------------------------------------
Pair    | 0          | 0          | 0          |   0.0 |  0.00
Bond    | 0          | 0          | 0          |   0.0 |  0.00
Kspace  | 0          | 0          | 0          |   0.0 |  0.00
Neigh   | 0          | 0          | 0          |   0.0 |  0.00
Comm    | 0          | 0          | 0          |   0.0 |  0.00
Output  | 0          | 0          | 0          |   0.0 |  0.00
Modify  | 0          | 0          | 0          |   0.0 |  0.00
Other   |            | 4.006e-06  |            |       |100.00

Nlocal:        750.000 ave         785 max         720 min
Histogram: 2 0 5 5 8 4 4 2 0 2
Nghost:        16092.0 ave       16122 max       16057 min
Histogram: 2 0 2 3 5 8 5 4 1 2
Neighs:        421923.0 ave      442164 max      402959 min
Histogram: 1 2 2 6 6 7 4 2 0 2

Total # of neighbors = 13501550
Ave neighs/atom = 562.56458
Ave special neighs/atom = 1.0000000
Neighbor list builds = 0
Dangerous builds = 0
undump          5

quit
