LAMMPS (29 Sep 2021)
# =========================================================
# BTO 沿 Y 轴压缩脚本 (基于已弛豫的 restart 文件)
# 包含了完整的力场重定义
# 保持了原始的 dump 输出格式和数据平滑输出
#
# 优化点：
# 重新调整了 Nload 和 RSTINT，确保 restart 文件在精确的 0.1% 应变整数点输出
# =========================================================

units           metal
dimension       3
boundary        p p p
atom_style      full
atom_modify     map yes

timestep        0.00005

# ---------------- 用户参数设置 ----------------
variable        RST       string twin_relaxed_ready.restart
variable        CASE      string twin
variable        TAG       string ${CASE}_ycompress_cont_2pct
variable        TAG       string twin_ycompress_cont_2pct

variable        Tstart    equal 5.0
variable        Tstop     equal 5.0
variable        Tdamp     equal 0.10
variable        Pdamp     equal 2.0
variable        Ptarget   equal 0.0

# --- 【关键修改区：精确控制输出节点】 ---
# 目标：总压缩应变为 -2.0% (epsY = -0.02)
# 我们将总步数设为 1,000,000 步，这样每 1,000,000 步对应 2.0% 应变。
# 因此，每 50,000 步正好对应 0.1% 的应变 (0.001)。

variable        Npre      equal 20000       # 压缩前短时间弛豫步数
variable        Nload     equal 1000000     # 压缩过程总步数 (修改为100万步方便计算)
variable        epsY      equal -0.02       # 目标总应变 (-2.0%)
variable        ey_comp   equal v_epsY/(v_Nload*dt) # 计算应变率

variable        THERMOINT equal 1000
variable        DUMPINT   equal 10000

# 【核心参数】：设置 restart 输出间隔为 50000 步
# 因为使用了 reset_timestep 0，输出的文件将是：
# *.50000.restart  对应应变 -0.1%
# *.100000.restart 对应应变 -0.2%
# *.150000.restart 对应应变 -0.3%
# ... 以此类推，直到 *.1000000.restart (-2.0%)
variable        RSTINT    equal 50000
# ----------------------------------------

variable        OUTINST   string ${CASE}_ss_y_inst_2pct_cont.txt
variable        OUTINST   string twin_ss_y_inst_2pct_cont.txt
variable        OUTAVG1   string ${CASE}_ss_y_avg_2pct_cont.txt
variable        OUTAVG1   string twin_ss_y_avg_2pct_cont.txt
variable        OUTAVG2   string ${CASE}_ss_y_avg_2pct_cont_smooth.txt
variable        OUTAVG2   string twin_ss_y_avg_2pct_cont_smooth.txt

# ---------------- 读取弛豫好的 restart 文件 ----------------
read_restart    ${RST}
read_restart    twin_relaxed_ready.restart
Reading restart file ...
  restart file = 29 Sep 2021, LAMMPS = 29 Sep 2021
  restoring atom style full from restart
  triclinic box = (-0.057091169 0.0000000 0.10867534) to (40.057091 96.000000 40.291325) with tilt (0.0000000 0.0000000 0.0000000)
  2 by 8 by 2 MPI processor grid
  restoring pair style born/coul/long/cs from restart
  restoring bond style class2 from restart
  24000 atoms
  12000 bonds
Finding 1-2 1-3 1-4 neighbors ...
  special bond factors lj:    0        0        0       
  special bond factors coul:  0        1        1       
     1 = max # of 1-2 neighbors
     0 = max # of 1-3 neighbors
     0 = max # of 1-4 neighbors
     1 = max # of special neighbors
  special bonds CPU = 0.002 seconds
  read_restart CPU = 0.012 seconds
fix             csinfo all property/atom i_CSID
Resetting peratom fix info from restart file:
  fix style: property/atom, fix ID: csinfo

# ---------------- 分组设定 (Groups) ----------------
group           Bacore    type 1
2400 atoms in group Bacore
group           Bashell   type 2
2400 atoms in group Bashell
group           Ticore    type 3
2400 atoms in group Ticore
group           Tishell   type 4
2400 atoms in group Tishell
group           Ocore     type 5
7200 atoms in group Ocore
group           Oshell    type 6
7200 atoms in group Oshell
group           cores     type 1 3 5
12000 atoms in group cores
group           shells    type 2 4 6
12000 atoms in group shells
group           BTO       type 1 2 3 4 5 6
24000 atoms in group BTO

# ---------------- 邻居列表设置 ----------------
neighbor        2.0 bin
neigh_modify    delay 0 every 1 check yes
comm_style      brick
comm_modify     vel yes cutoff 15.0

# ---------------- 力场重定义 (从 restart 续算必须包含) ----------------
pair_style      born/coul/long/cs 8.0 10.0
kspace_style    pppm 1.0e-5
pair_coeff      * * 0.0 1.000 0.0 0.0 0.0
pair_coeff      2 6 1568.42 0.3471 0.0 0.0 0.0
pair_coeff      4 6 3139.49 0.2549 0.0 0.0 0.0
pair_coeff      6 6 2571.97 0.3554 0.0 528.65 0.0
pair_modify     table 0

bond_style      class2
bond_coeff      1 0.0 154.915 0.0 0.0
bond_coeff      2 0.0 163.455 0.0 0.0
bond_coeff      3 0.0 23.185 0.0 289.8716667

special_bonds   coul 0.0 1.0 1.0

# ---------------- 计算项 (Computes) ----------------
compute         Tcs all temp/cs cores shells
compute         thermo_press_lmp all pressure Tcs
compute         dis all displace/atom
Resetting peratom fix info from restart file:
  fix style: STORE, fix ID: dis_COMPUTE_STORE
compute         myKE all ke/atom
compute         myPE all pe/atom
compute         mystress all stress/atom NULL
compute         COM BTO com
compute         UNWRAP BTO property/atom xu yu zu

variable        Mise atom sqrt(0.5*((c_mystress[1]-c_mystress[2])^2+(c_mystress[2]-c_mystress[3])^2+(c_mystress[3]-c_mystress[1])^2)+3.0*((c_mystress[4])^2+(c_mystress[5])^2+(c_mystress[6])^2))
variable        comx equal c_COM[1]
variable        comy equal c_COM[2]
variable        comz equal c_COM[3]
variable        mux atom q*(c_UNWRAP[1]-v_comx)
variable        muy atom q*(c_UNWRAP[2]-v_comy)
variable        muz atom q*(c_UNWRAP[3]-v_comz)
compute         MUX BTO reduce sum v_mux
compute         MUY BTO reduce sum v_muy
compute         MUZ BTO reduce sum v_muz

variable        conv equal 1602.176634
variable        Px equal v_conv*c_MUX/vol
variable        Py equal v_conv*c_MUY/vol
variable        Pz equal v_conv*c_MUZ/vol

thermo          ${THERMOINT}
thermo          1000
thermo_style    custom step time temp press pxx pyy pzz v_Px v_Py v_Pz lx ly lz xy xz yz
thermo_modify   temp Tcs press thermo_press_lmp lost error

run             0
PPPM initialization ...
  using polynomial approximation for long-range coulomb (../kspace.cpp:342)
  G vector (1/distance) = 0.35148654
  grid = 75 144 75
  stencil order = 5
  estimated absolute RMS force accuracy = 0.00016915634
  estimated relative force accuracy = 1.1747257e-05
  using double precision KISS FFT
  3d grid and FFT values/proc = 55016 32400
All restart file peratom fix info was re-assigned
Neighbor list info ...
  update every 1 steps, delay 0 steps, check yes
  max neighbors/atom: 2000, page size: 100000
  master list distance cutoff = 12
  ghost atom cutoff = 15
  binsize = 6, bins = 7 16 7
  1 neighbor lists, perpetual/occasional/extra = 1 0 0
  (1) pair born/coul/long/cs, perpetual
      attributes: half, newton on
      pair build: half/bin/newton/tri
      stencil: half/bin/3d/tri
      bin: standard
Per MPI rank memory allocation (min/avg/max) = 19.77 | 20.16 | 20.76 Mbytes
Step Time Temp Press Pxx Pyy Pzz v_Px v_Py v_Pz Lx Ly Lz Xy Xz Yz 
       0            0     5.014682    353.66615   -203.61196    1500.0274   -233.13966    -1.482926    27.044225 -0.0051987006    40.114182           96    40.182649            0            0            0 
Loop time of 0.000149856 on 32 procs for 0 steps with 24000 atoms

33.4% CPU use with 32 MPI tasks x no OpenMP threads

MPI task timing breakdown:
Section |  min time  |  avg time  |  max time  |%varavg| %total
---------------------------------------------------------------
Pair    | 0          | 0          | 0          |   0.0 |  0.00
Bond    | 0          | 0          | 0          |   0.0 |  0.00
Kspace  | 0          | 0          | 0          |   0.0 |  0.00
Neigh   | 0          | 0          | 0          |   0.0 |  0.00
Comm    | 0          | 0          | 0          |   0.0 |  0.00
Output  | 0          | 0          | 0          |   0.0 |  0.00
Modify  | 0          | 0          | 0          |   0.0 |  0.00
Other   |            | 0.0001499  |            |       |100.00

Nlocal:        750.000 ave         781 max         718 min
Histogram: 1 0 2 2 10 8 8 0 0 1
Nghost:        15256.0 ave       15288 max       15225 min
Histogram: 1 0 0 8 8 10 2 2 0 1
Neighs:        415175.0 ave      431488 max      396804 min
Histogram: 2 2 1 3 8 4 5 3 1 3

Total # of neighbors = 13285591
Ave neighs/atom = 553.56629
Ave special neighs/atom = 1.0000000
Neighbor list builds = 0
Dangerous builds = 0

# ---------------- 压缩前短时间预弛豫 (NPT) ----------------
fix             fmom2 all momentum 1000 linear 1 1 1
fix             npt_eq all npt temp ${Tstart} ${Tstop} ${Tdamp} x ${Ptarget} ${Ptarget} ${Pdamp} z ${Ptarget} ${Ptarget} ${Pdamp} drag 1
fix             npt_eq all npt temp 5 ${Tstop} ${Tdamp} x ${Ptarget} ${Ptarget} ${Pdamp} z ${Ptarget} ${Ptarget} ${Pdamp} drag 1
fix             npt_eq all npt temp 5 5 ${Tdamp} x ${Ptarget} ${Ptarget} ${Pdamp} z ${Ptarget} ${Ptarget} ${Pdamp} drag 1
fix             npt_eq all npt temp 5 5 0.1 x ${Ptarget} ${Ptarget} ${Pdamp} z ${Ptarget} ${Ptarget} ${Pdamp} drag 1
fix             npt_eq all npt temp 5 5 0.1 x 0 ${Ptarget} ${Pdamp} z ${Ptarget} ${Ptarget} ${Pdamp} drag 1
fix             npt_eq all npt temp 5 5 0.1 x 0 0 ${Pdamp} z ${Ptarget} ${Ptarget} ${Pdamp} drag 1
fix             npt_eq all npt temp 5 5 0.1 x 0 0 2 z ${Ptarget} ${Ptarget} ${Pdamp} drag 1
fix             npt_eq all npt temp 5 5 0.1 x 0 0 2 z 0 ${Ptarget} ${Pdamp} drag 1
fix             npt_eq all npt temp 5 5 0.1 x 0 0 2 z 0 0 ${Pdamp} drag 1
fix             npt_eq all npt temp 5 5 0.1 x 0 0 2 z 0 0 2 drag 1
fix_modify      npt_eq temp Tcs press thermo_press_lmp

run             ${Npre}
run             20000
PPPM initialization ...
  using polynomial approximation for long-range coulomb (../kspace.cpp:342)
  G vector (1/distance) = 0.35148654
  grid = 75 144 75
  stencil order = 5
  estimated absolute RMS force accuracy = 0.00016915634
  estimated relative force accuracy = 1.1747257e-05
  using double precision KISS FFT
  3d grid and FFT values/proc = 55016 32400
Per MPI rank memory allocation (min/avg/max) = 20.90 | 21.28 | 21.89 Mbytes
Step Time Temp Press Pxx Pyy Pzz v_Px v_Py v_Pz Lx Ly Lz Xy Xz Yz 
       0            0     5.014682    353.66615   -203.61196    1500.0274   -233.13966    -1.482926    27.044225 -0.0051987006    40.114182           96    40.182649            0            0            0 
    1000         0.05    5.0119684    724.23522    122.28276    2150.2052   -97.520319   -1.2903855    27.181138  -0.14735757    40.105101           96    40.170874            0            0            0 
    2000          0.1    5.0280372    616.22726   -137.57231    1838.0929     150.3884   -1.4595706    27.149929 -0.019790556    40.123575           96     40.16043            0            0            0 
    3000         0.15     5.003891    411.17989    79.208378    1254.1392   -97.567501   -1.8920063    26.967563   0.10833562    40.135031           96    40.164316            0            0            0 
    4000          0.2    4.8466494    599.60823    124.61811    1402.8333    273.61027   -1.8479367    26.873934 -0.065250952    40.136695           96    40.148227            0            0            0 
    5000         0.25    4.8387337    823.21705    173.45372    2229.2631    69.184407   -1.6759084    27.220989  -0.15033246     40.13155           96    40.151983            0            0            0 
    6000          0.3    4.8839821    861.27533    41.081352    2165.2384    379.74309   -1.5452587      27.2369   0.05253254    40.129613           96     40.15114            0            0            0 
    7000         0.35    5.0504053    568.34962    250.26409    1434.6621     22.37973   -1.6469522    26.966083  0.095531761    40.117075           96    40.174195            0            0            0 
    8000          0.4    5.1393797    421.65509   -105.20221    1437.8211   -65.400932   -1.4658404     26.99083 -0.088206216    40.112888           96    40.185994            0            0            0 
    9000         0.45    5.1783841    763.53976    103.55768    2182.1229    7.2121793   -1.0869342    27.225714  -0.10713424    40.094979           96    40.182141            0            0            0 
   10000          0.5    5.1485066    754.23129   -135.18213    2358.6069    41.537328   -1.1061208    27.386846  0.080257811    40.101149           96    40.183454            0            0            0 
   11000         0.55    5.0002783    328.43073   -85.605211    1412.5767   -339.40834   -1.4041391    27.043173  0.062647573    40.103412           96    40.196406            0            0            0 
   12000          0.6    5.0671233    283.72584   -170.34152    1147.2284   -123.42773   -1.3797187    26.888469   -0.1410374    40.107635           96    40.186719            0            0            0 
   13000         0.65    5.2461242    708.29669   -105.61026    2319.2229   -86.444254   -1.2787702    27.359343 -0.039813598    40.110457           96    40.177333            0            0            0 
   14000          0.7    5.3420923     830.0367   -33.755923    2430.0557    96.085135   -1.2979803    27.384244   0.13819764    40.112441           96    40.167432            0            0            0 
   15000         0.75    5.1830857    456.48404   0.54338524    1479.1861   -108.03091   -1.5689651     27.01777  0.043808502    40.115839           96     40.18062            0            0            0 
   16000          0.8    5.0029601    516.26903    11.052204     1534.405    5.6355479   -1.4999787    27.011481 -0.087550398    40.114202           96     40.18237            0            0            0 
   17000         0.85    4.8085705    1046.5861    126.10285    2714.8718     301.0239   -1.1640275    27.396078  0.028053777    40.103783           96     40.17042            0            0            0 
   18000          0.9    4.8890423    1025.7889    124.70165    2899.5984    55.340453   -1.1787935    27.545671   0.14278945    40.101132           96    40.182526            0            0            0 
   19000         0.95    5.0072444     623.2369    104.89252    1709.8078    57.259056   -1.2899209    27.051624 -0.020384595     40.09819           96    40.194512            0            0            0 
   20000            1    5.1232481    639.50889    104.41129    1765.5961    50.788401   -1.1745114    27.081987  -0.06762987     40.09346           96    40.197359            0            0            0 
Loop time of 860.322 on 32 procs for 20000 steps with 24000 atoms

Performance: 0.100 ns/day, 238.978 hours/ns, 23.247 timesteps/s
100.0% CPU use with 32 MPI tasks x no OpenMP threads

MPI task timing breakdown:
Section |  min time  |  avg time  |  max time  |%varavg| %total
---------------------------------------------------------------
Pair    | 363.01     | 379.35     | 398.16     |  38.7 | 44.09
Bond    | 0.23522    | 0.25774    | 0.30866    |   2.8 |  0.03
Kspace  | 243.88     | 262.49     | 278.88     |  45.9 | 30.51
Neigh   | 0          | 0          | 0          |   0.0 |  0.00
Comm    | 29.965     | 30.649     | 31.356     |   6.8 |  3.56
Output  | 0.0047577  | 0.0048597  | 0.0076924  |   0.7 |  0.00
Modify  | 113.5      | 143.82     | 183.89     | 228.4 | 16.72
Other   |            | 43.75      |            |       |  5.08

Nlocal:        750.000 ave         781 max         718 min
Histogram: 1 0 2 2 10 8 8 0 0 1
Nghost:        15256.0 ave       15288 max       15225 min
Histogram: 1 0 0 8 8 10 2 2 0 1
Neighs:        415175.0 ave      431488 max      396804 min
Histogram: 2 2 1 3 8 4 5 3 1 3

Total # of neighbors = 13285591
Ave neighs/atom = 553.56629
Ave special neighs/atom = 1.0000000
Neighbor list builds = 0
Dangerous builds = 0
unfix           npt_eq
run             0
PPPM initialization ...
  using polynomial approximation for long-range coulomb (../kspace.cpp:342)
  G vector (1/distance) = 0.35148939
  grid = 75 144 75
  stencil order = 5
  estimated absolute RMS force accuracy = 0.00016913308
  estimated relative force accuracy = 1.1745642e-05
  using double precision KISS FFT
  3d grid and FFT values/proc = 55016 32400
Per MPI rank memory allocation (min/avg/max) = 20.90 | 21.28 | 21.89 Mbytes
Step Time Temp Press Pxx Pyy Pzz v_Px v_Py v_Pz Lx Ly Lz Xy Xz Yz 
   20000            1    5.1232483    639.50648    104.40886    1765.5937    50.785838   -1.1745114    27.081987  -0.06762987     40.09346           96    40.197359            0            0            0 
Loop time of 3.75934e-06 on 32 procs for 0 steps with 24000 atoms

120.5% CPU use with 32 MPI tasks x no OpenMP threads

MPI task timing breakdown:
Section |  min time  |  avg time  |  max time  |%varavg| %total
---------------------------------------------------------------
Pair    | 0          | 0          | 0          |   0.0 |  0.00
Bond    | 0          | 0          | 0          |   0.0 |  0.00
Kspace  | 0          | 0          | 0          |   0.0 |  0.00
Neigh   | 0          | 0          | 0          |   0.0 |  0.00
Comm    | 0          | 0          | 0          |   0.0 |  0.00
Output  | 0          | 0          | 0          |   0.0 |  0.00
Modify  | 0          | 0          | 0          |   0.0 |  0.00
Other   |            | 3.759e-06  |            |       |100.00

Nlocal:        750.000 ave         760 max         740 min
Histogram: 2 3 2 5 4 6 0 1 6 3
Nghost:        15256.0 ave       15266 max       15246 min
Histogram: 2 5 3 0 6 3 3 3 3 4
Neighs:        416046.0 ave      432648 max      403276 min
Histogram: 2 2 7 3 6 7 2 0 0 3

Total # of neighbors = 13313481
Ave neighs/atom = 554.72838
Ave special neighs/atom = 1.0000000
Neighbor list builds = 0
Dangerous builds = 0

# ---------------- 冻结参考盒子长度 (用于计算工程应变) ----------------
variable        tmpx equal lx
variable        L0 equal ${tmpx}
variable        L0 equal 40.0934596268475
variable        tmpy equal ly
variable        L1 equal ${tmpy}
variable        L1 equal 96
variable        tmpz equal lz
variable        L2 equal ${tmpz}
variable        L2 equal 40.1973587940096

# ---------------- 冻结参考初始应力 (用于输出相对零应力) ----------------
variable        tmpSx equal c_thermo_press_lmp[1]
variable        S0x equal ${tmpSx}
variable        S0x equal 104.408863541237
variable        tmpSy equal c_thermo_press_lmp[2]
variable        S0y equal ${tmpSy}
variable        S0y equal 1765.59365410235
variable        tmpSz equal c_thermo_press_lmp[3]
variable        S0z equal ${tmpSz}
variable        S0z equal 50.7858384529843

# 重置时间步！这保证了后续的 restart 文件名直接对应压缩步数
reset_timestep  0
run             0
PPPM initialization ...
  using polynomial approximation for long-range coulomb (../kspace.cpp:342)
  G vector (1/distance) = 0.35148939
  grid = 75 144 75
  stencil order = 5
  estimated absolute RMS force accuracy = 0.00016913308
  estimated relative force accuracy = 1.1745642e-05
  using double precision KISS FFT
  3d grid and FFT values/proc = 55016 32400
Per MPI rank memory allocation (min/avg/max) = 20.90 | 21.28 | 21.89 Mbytes
Step Time Temp Press Pxx Pyy Pzz v_Px v_Py v_Pz Lx Ly Lz Xy Xz Yz 
       0            1    5.1232483    639.50648    104.40886    1765.5937    50.785838   -1.1745114    27.081987  -0.06762987     40.09346           96    40.197359            0            0            0 
Loop time of 3.30532e-06 on 32 procs for 0 steps with 24000 atoms

117.2% CPU use with 32 MPI tasks x no OpenMP threads

MPI task timing breakdown:
Section |  min time  |  avg time  |  max time  |%varavg| %total
---------------------------------------------------------------
Pair    | 0          | 0          | 0          |   0.0 |  0.00
Bond    | 0          | 0          | 0          |   0.0 |  0.00
Kspace  | 0          | 0          | 0          |   0.0 |  0.00
Neigh   | 0          | 0          | 0          |   0.0 |  0.00
Comm    | 0          | 0          | 0          |   0.0 |  0.00
Output  | 0          | 0          | 0          |   0.0 |  0.00
Modify  | 0          | 0          | 0          |   0.0 |  0.00
Other   |            | 3.305e-06  |            |       |100.00

Nlocal:        750.000 ave         760 max         740 min
Histogram: 2 3 2 5 4 6 0 1 6 3
Nghost:        15256.0 ave       15266 max       15246 min
Histogram: 2 5 3 0 6 3 3 3 3 4
Neighs:        416046.0 ave      432648 max      403276 min
Histogram: 2 2 7 3 6 7 2 0 0 3

Total # of neighbors = 13313481
Ave neighs/atom = 554.72838
Ave special neighs/atom = 1.0000000
Neighbor list builds = 0
Dangerous builds = 0

# ---------------- 工程应变 / 相对宏观应力 ----------------
variable        strainx equal (lx-v_L0)/v_L0
variable        strainy equal (ly-v_L1)/v_L1
variable        strainz equal (lz-v_L2)/v_L2

variable        s1 equal v_strainx
variable        s2 equal v_strainy
variable        s3 equal v_strainz

variable        p1 equal -(c_thermo_press_lmp[1]-v_S0x)/10000.0
variable        p2 equal -(c_thermo_press_lmp[2]-v_S0y)/10000.0
variable        p3 equal -(c_thermo_press_lmp[3]-v_S0z)/10000.0

variable        simtime equal step*dt
variable        ts equal step

# ---------------- 将 (0,0) 行显式写入所有文本文件中 ----------------
print           "TimeStep simtime s1 s2 s3 p1 p2 p3 Px Py Pz" file ${OUTINST} screen no
print           "TimeStep simtime s1 s2 s3 p1 p2 p3 Px Py Pz" file twin_ss_y_inst_2pct_cont.txt screen no
print           "0 0.0 0.0 0.0 0.0 0.0 0.0 0.0 ${Px} ${Py} ${Pz}" append ${OUTINST} screen no
print           "0 0.0 0.0 0.0 0.0 0.0 0.0 0.0 ${Px} ${Py} ${Pz}" append twin_ss_y_inst_2pct_cont.txt screen no

print           "TimeStep simtime s1 s2 s3 p1 p2 p3 Px Py Pz" file ${OUTAVG1} screen no
print           "TimeStep simtime s1 s2 s3 p1 p2 p3 Px Py Pz" file twin_ss_y_avg_2pct_cont.txt screen no
print           "0 0.0 0.0 0.0 0.0 0.0 0.0 0.0 ${Px} ${Py} ${Pz}" append ${OUTAVG1} screen no
print           "0 0.0 0.0 0.0 0.0 0.0 0.0 0.0 ${Px} ${Py} ${Pz}" append twin_ss_y_avg_2pct_cont.txt screen no

print           "TimeStep simtime s1 s2 s3 p1 p2 p3 Px Py Pz" file ${OUTAVG2} screen no
print           "TimeStep simtime s1 s2 s3 p1 p2 p3 Px Py Pz" file twin_ss_y_avg_2pct_cont_smooth.txt screen no
print           "0 0.0 0.0 0.0 0.0 0.0 0.0 0.0 ${Px} ${Py} ${Pz}" append ${OUTAVG2} screen no
print           "0 0.0 0.0 0.0 0.0 0.0 0.0 0.0 ${Px} ${Py} ${Pz}" append twin_ss_y_avg_2pct_cont_smooth.txt screen no

# ---------------- 时间平均输出处理 ----------------
fix             ssout0 all ave/time 100 50 5000   v_simtime v_s1 v_s2 v_s3 v_p1 v_p2 v_p3 v_Px v_Py v_Pz
fix             ssavg1 all ave/time 100 100 10000 v_simtime v_s1 v_s2 v_s3 v_p1 v_p2 v_p3 v_Px v_Py v_Pz
fix             ssavg2 all ave/time 200 100 20000 v_simtime v_s1 v_s2 v_s3 v_p1 v_p2 v_p3 v_Px v_Py v_Pz

# ---------------- 桥接 ave/time 数据用于 fix print ----------------
variable        inst_t  equal f_ssout0[1]
variable        inst_s1 equal f_ssout0[2]
variable        inst_s2 equal f_ssout0[3]
variable        inst_s3 equal f_ssout0[4]
variable        inst_p1 equal f_ssout0[5]
variable        inst_p2 equal f_ssout0[6]
variable        inst_p3 equal f_ssout0[7]
variable        inst_Px equal f_ssout0[8]
variable        inst_Py equal f_ssout0[9]
variable        inst_Pz equal f_ssout0[10]

variable        avg1_t  equal f_ssavg1[1]
variable        avg1_s1 equal f_ssavg1[2]
variable        avg1_s2 equal f_ssavg1[3]
variable        avg1_s3 equal f_ssavg1[4]
variable        avg1_p1 equal f_ssavg1[5]
variable        avg1_p2 equal f_ssavg1[6]
variable        avg1_p3 equal f_ssavg1[7]
variable        avg1_Px equal f_ssavg1[8]
variable        avg1_Py equal f_ssavg1[9]
variable        avg1_Pz equal f_ssavg1[10]

variable        avg2_t  equal f_ssavg2[1]
variable        avg2_s1 equal f_ssavg2[2]
variable        avg2_s2 equal f_ssavg2[3]
variable        avg2_s3 equal f_ssavg2[4]
variable        avg2_p1 equal f_ssavg2[5]
variable        avg2_p2 equal f_ssavg2[6]
variable        avg2_p3 equal f_ssavg2[7]
variable        avg2_Px equal f_ssavg2[8]
variable        avg2_Py equal f_ssavg2[9]
variable        avg2_Pz equal f_ssavg2[10]

# ---------------- 数据记录 ----------------
fix             pout0 all print 5000  "${ts} ${inst_t} ${inst_s1} ${inst_s2} ${inst_s3} ${inst_p1} ${inst_p2} ${inst_p3} ${inst_Px} ${inst_Py} ${inst_Pz}" append ${OUTINST} screen no
fix             pout0 all print 5000  "${ts} ${inst_t} ${inst_s1} ${inst_s2} ${inst_s3} ${inst_p1} ${inst_p2} ${inst_p3} ${inst_Px} ${inst_Py} ${inst_Pz}" append twin_ss_y_inst_2pct_cont.txt screen no
fix             pavg1 all print 10000 "${ts} ${avg1_t} ${avg1_s1} ${avg1_s2} ${avg1_s3} ${avg1_p1} ${avg1_p2} ${avg1_p3} ${avg1_Px} ${avg1_Py} ${avg1_Pz}" append ${OUTAVG1} screen no
fix             pavg1 all print 10000 "${ts} ${avg1_t} ${avg1_s1} ${avg1_s2} ${avg1_s3} ${avg1_p1} ${avg1_p2} ${avg1_p3} ${avg1_Px} ${avg1_Py} ${avg1_Pz}" append twin_ss_y_avg_2pct_cont.txt screen no
fix             pavg2 all print 20000 "${ts} ${avg2_t} ${avg2_s1} ${avg2_s2} ${avg2_s3} ${avg2_p1} ${avg2_p2} ${avg2_p3} ${avg2_Px} ${avg2_Py} ${avg2_Pz}" append ${OUTAVG2} screen no
fix             pavg2 all print 20000 "${ts} ${avg2_t} ${avg2_s1} ${avg2_s2} ${avg2_s3} ${avg2_p1} ${avg2_p2} ${avg2_p3} ${avg2_Px} ${avg2_Py} ${avg2_Pz}" append twin_ss_y_avg_2pct_cont_smooth.txt screen no

# 关键：以固定的 RSTINT 频率输出 restart，生成 .50000.restart 等文件
restart         ${RSTINT} ${CASE}_ycompress_cont_restart.*.restart
restart         50000 ${CASE}_ycompress_cont_restart.*.restart
restart         50000 twin_ycompress_cont_restart.*.restart

dump            4 all custom ${DUMPINT} ${CASE}_YCompressCont.*.dump id mol type q x y z fx fy fz c_dis[1] c_dis[2] c_dis[3] c_dis[4] c_myKE c_myPE v_Mise
dump            4 all custom 10000 ${CASE}_YCompressCont.*.dump id mol type q x y z fx fy fz c_dis[1] c_dis[2] c_dis[3] c_dis[4] c_myKE c_myPE v_Mise
dump            4 all custom 10000 twin_YCompressCont.*.dump id mol type q x y z fx fy fz c_dis[1] c_dis[2] c_dis[3] c_dis[4] c_myKE c_myPE v_Mise
dump_modify     4 sort id

# ---------------- 动态加载压缩 ----------------
fix             npt_dyn all npt temp ${Tstart} ${Tstop} ${Tdamp} x ${Ptarget} ${Ptarget} ${Pdamp} z ${Ptarget} ${Ptarget} ${Pdamp} drag 1
fix             npt_dyn all npt temp 5 ${Tstop} ${Tdamp} x ${Ptarget} ${Ptarget} ${Pdamp} z ${Ptarget} ${Ptarget} ${Pdamp} drag 1
fix             npt_dyn all npt temp 5 5 ${Tdamp} x ${Ptarget} ${Ptarget} ${Pdamp} z ${Ptarget} ${Ptarget} ${Pdamp} drag 1
fix             npt_dyn all npt temp 5 5 0.1 x ${Ptarget} ${Ptarget} ${Pdamp} z ${Ptarget} ${Ptarget} ${Pdamp} drag 1
fix             npt_dyn all npt temp 5 5 0.1 x 0 ${Ptarget} ${Pdamp} z ${Ptarget} ${Ptarget} ${Pdamp} drag 1
fix             npt_dyn all npt temp 5 5 0.1 x 0 0 ${Pdamp} z ${Ptarget} ${Ptarget} ${Pdamp} drag 1
fix             npt_dyn all npt temp 5 5 0.1 x 0 0 2 z ${Ptarget} ${Ptarget} ${Pdamp} drag 1
fix             npt_dyn all npt temp 5 5 0.1 x 0 0 2 z 0 ${Ptarget} ${Pdamp} drag 1
fix             npt_dyn all npt temp 5 5 0.1 x 0 0 2 z 0 0 ${Pdamp} drag 1
fix             npt_dyn all npt temp 5 5 0.1 x 0 0 2 z 0 0 2 drag 1
fix_modify      npt_dyn temp Tcs press thermo_press_lmp
fix             ndef all deform 1 y erate ${ey_comp} remap x units box
fix             ndef all deform 1 y erate -0.0004 remap x units box

run             ${Nload}
run             1000000
PPPM initialization ...
  using polynomial approximation for long-range coulomb (../kspace.cpp:342)
  G vector (1/distance) = 0.35148939
  grid = 75 144 75
  stencil order = 5
  estimated absolute RMS force accuracy = 0.00016913308
  estimated relative force accuracy = 1.1745642e-05
  using double precision KISS FFT
  3d grid and FFT values/proc = 55016 32400
Per MPI rank memory allocation (min/avg/max) = 24.01 | 24.40 | 25.01 Mbytes
Step Time Temp Press Pxx Pyy Pzz v_Px v_Py v_Pz Lx Ly Lz Xy Xz Yz 
       0            1    5.1232483    639.50648    104.40886    1765.5937    50.785838   -1.1745114    27.081987  -0.06762987     40.09346           96    40.197359            0            0            0 
    1000         1.05    5.0827789    1077.3346   -10.350018    3088.3441    156.28885  -0.95398726    27.599988  0.045344676    40.093428     95.99808    40.190075            0            0            0 
    2000          1.1    4.9143825    983.74929    180.30429    2743.9913    29.217472  -0.97901353    27.438069  0.090969978    40.087058     95.99616    40.191633            0            0            0 
    3000         1.15     4.771844    486.34653   -100.66181    1688.0441    -126.0623   -1.2505781    27.057659 -0.034344049    40.098299     95.99424    40.203232            0            0            0 
    4000          1.2    4.8400437    592.49504   -47.730888    1911.9862   -84.486127    -1.227043    27.129359 -0.061858064    40.099845     95.99232     40.19607            0            0            0 
    5000         1.25     4.845146    1000.5419   -65.996889    2941.7834    128.11391   -1.0742953    27.488308  0.070970518    40.102022      95.9904    40.178393            0            0            0 
    6000          1.3    4.9554859    766.25925   -3.0997534    2555.9692   -251.76325   -1.2672055    27.396766  0.046097727    40.105695     95.98848    40.188883            0            0            0 
    7000         1.35    4.9564665     449.3416   -117.71707    1485.8499   -17.814826    -1.416715    26.886501 -0.047743813    40.112114     95.98656    40.185694            0            0            0 
    8000          1.4     4.966394    608.15283   -63.299796      1957.41    -67.34154   -1.4293331    27.117147 -0.078785873    40.115131     95.98464     40.18401            0            0            0 
    9000         1.45    5.0176825    944.05439   -71.827055    2844.8839    61.434233   -1.2917635    27.438089  0.040156289     40.11487     95.98272    40.175208            0            0            0 
   10000          1.5    5.1078843     813.5212     196.4629    2271.7255   -25.315513   -1.3300225    27.147449  0.064568469    40.106673      95.9808    40.179906            0            0            0 
   11000         1.55     5.092716    536.04971   -103.14114    1690.6552    22.937235   -1.5014634     26.92122 -0.078970644    40.117861     95.97888    40.187449            0            0            0 
   12000          1.6    5.0772187     736.9013    116.99889    1984.3642    111.64227   -1.4325207    27.023926 -0.086809188    40.112673     95.97696    40.181861            0            0            0 
   13000         1.65    5.1245495    968.93083    114.32344    2699.5897     95.16344    -1.347991    27.292417  0.016617227    40.113766     95.97504    40.175509            0            0            0 
   14000          1.7    5.0476545    824.75487    129.97131    2381.0566     -34.4873   -1.4722135    27.138166  0.062451864    40.118492     95.97312    40.176425            0            0            0 
   15000         1.75    5.1699871    627.08068     33.77715    1625.9135     223.8623   -1.6517681    26.783507  -0.12771608    40.128269      95.9712    40.167862            0            0            0 
   16000          1.8    5.1234238    531.15171   -84.761638    1734.9521   -54.429842   -1.7852675    26.981998 -0.093959725    40.137027     95.96928    40.172029            0            0            0 
   17000         1.85       5.0852      770.248    41.513116    2282.4787   -10.961192   -1.5974751    27.106951   0.08239307    40.128828     95.96736    40.165109            0            0            0 
   18000          1.9    4.8847767    716.61027    5.5891622    2159.1699   -12.627768   -1.5318626    26.984732  0.044044402     40.12426     95.96544    40.169552            0            0            0 
   19000         1.95    4.8442991    385.16988   -221.19274    1508.1871   -129.21429   -1.6696121    26.801324  -0.15142322     40.12946     95.96352    40.183154            0            0            0 
   20000            2    4.8993784    389.13311   -75.407914    1329.0734   -83.944055   -1.5962805    26.761777 -0.042771341    40.122358      95.9616    40.183709            0            0            0 
   21000         2.05    4.9702405     637.9614   -4.4319618    2121.8114   -201.16103   -1.4862707     27.02269   0.15523904    40.119484     95.95968    40.183728            0            0            0 
   22000          2.1    5.0561319    746.52689   -9.3745853     2211.806    39.451713   -1.4834277    26.937398 -0.0022308639    40.122982     95.95776    40.172918            0            0            0 
   23000         2.15     4.950989     496.2927   0.71457909    1422.3285    68.148713   -1.7882184     26.67486  -0.15275389    40.135622     95.95584    40.169937            0            0            0 
   24000          2.2    4.8391012    369.86464   -88.161718    1283.4812   -83.413673   -2.0157482    26.744325  0.050066605    40.149272     95.95392    40.170115            0            0            0 
   25000         2.25    4.7505931    798.93499    188.18979    2137.4542    73.439953   -1.8117321    26.854586   0.17905459    40.139992       95.952    40.155517            0            0            0 
   26000          2.3    4.9315038     914.4767     27.07005    2468.2328    250.43154   -1.7416477    26.949785 -0.053541404    40.143321     95.95008    40.153232            0            0            0 
   27000         2.35    4.9915553     542.3805   -18.599313    1622.6139    25.438803   -1.9110165    26.751214  -0.12270043    40.144893     95.94816    40.171155            0            0            0 
   28000          2.4    4.9749285    460.98919     116.5403    1237.7586    31.004513   -1.7901294    26.589355   0.17373953    40.131862     95.94624    40.179954            0            0            0 
   29000         2.45    4.9949917    805.95184    76.007496    2411.8466   -67.637681   -1.5123798    26.939683   0.11941924    40.121802     95.94432    40.185534            0            0            0 
   30000          2.5    4.8869318    937.25306   -7.5003035    2628.0722    193.53015   -1.3287853    26.984419 -0.078905032    40.117857      95.9424    40.180623            0            0            0 
   31000         2.55    5.0275425    540.09868    66.931785    1598.8707   -43.171549   -1.6022211    26.713528 -0.064016908    40.121572     95.94048    40.193215            0            0            0 
   32000          2.6    5.1792142    347.87731   -112.63233    1415.5176   -256.89832   -1.7512475    26.686351   0.18583084    40.131165     95.93856    40.195841            0            0            0 
   33000         2.65    5.2073058    851.85554    54.023922    2431.2865    72.616779   -1.5255038    26.853143  0.059085206    40.126818     95.93664    40.173038            0            0            0 
   34000          2.7    5.2319145    891.96335   -117.36389    2686.7987    108.77438   -1.5990817    27.034881  -0.11430193    40.137558     95.93472    40.170634            0            0            0 
   35000         2.75    5.0951176    436.51204    -133.7847    1627.7948   -182.13858   -1.8341454    26.751148 -0.018598257    40.140643      95.9328    40.184303            0            0            0 
   36000          2.8    4.8844221    477.85418   -44.040412    1592.1034   -112.16724   -1.7169341    26.617774   0.15106063     40.13117     95.93088    40.188642            0            0            0 
   37000         2.85    4.9356876    920.14412   -35.380774    2761.7995    36.356514   -1.3998041    26.977864  0.016416816    40.119838     95.92896      40.1926            0            0            0 
   38000          2.9    5.0638569    969.09107    35.069239    2751.3993    123.13527   -1.1837579    27.004777  -0.13713743    40.108053     95.92704    40.197935            0            0            0 
   39000         2.95    5.1440345    618.90114    36.821917    2004.8172   -182.58896   -1.3654764    26.804694   0.01628679    40.107823     95.92512    40.216483            0            0            0 
   40000            3    5.1071319    741.01719    80.859639    2183.7965   -39.257292   -1.4009411    26.745247   0.10554118    40.110871      95.9232    40.210969            0            0            0 
   41000         3.05    4.8854008    1117.8804    163.34527    2916.7456    275.91585   -1.3021004    26.913442  -0.03192037     40.11466     95.92128    40.187727            0            0            0 
   42000          3.1    4.7535429    956.57712   -49.771376    2918.1693    3.6861147   -1.5720069    27.083867  -0.13565894    40.134449     95.91936    40.185035            0            0            0 
   43000         3.15    4.8066633    754.58215     85.67277    2183.9415   -3.5433546   -1.8434753    26.754966 0.0065563141    40.141193     95.91744    40.180944            0            0            0 
   44000          3.2      4.87851    808.88124    26.879012    2259.8391    142.28661   -1.8057119    26.664817  0.075452546    40.141861     95.91552    40.178205            0            0            0 
   45000         3.25    4.8935857    951.78926   -101.91336      2917.07    42.542605   -1.5524471    26.985434  -0.11074046    40.133874      95.9136    40.186132            0            0            0 
   46000          3.3    4.9237789    969.31418    33.914247    2859.5719    16.819877   -1.3224275    26.984639  -0.12829019     40.11707     95.91168    40.196224            0            0            0 
   47000         3.35    4.9728329    755.87803    46.006077    2398.2478   -174.25678   -1.3769954    26.788233 -0.013594444    40.110028     95.90976    40.217566            0            0            0 
   48000          3.4    4.9834145    697.43422   -75.925438    2236.5685   -65.936028   -1.2848186    26.644669   0.10189867    40.108435     95.90784    40.217999            0            0            0 
   49000         3.45    5.0068905    888.49013    27.895397    2655.3934    -15.47314    -1.227887    26.825221  -0.11755044    40.109327     95.90592    40.206682            0            0            0 
   50000          3.5    5.1068286    887.14388   -88.683433    2875.5213   -123.02328   -1.5024832    26.993995  -0.12239049    40.128308       95.904     40.19836            0            0            0 
   51000         3.55     5.019184    740.03526    70.472656    2204.8597    -52.85561   -1.8021439     26.59582   0.08996793    40.138966     95.90208    40.184567            0            0            0 
   52000          3.6    5.0095201    625.57527   -138.68409    1922.5055    95.283843   -1.9627776    26.473976  0.070120732    40.155331     95.90016    40.175227            0            0            0 
   53000         3.65    5.1025783    811.28097   -18.125005     2471.038   -16.676199     -1.91291    26.762653  -0.11349209    40.153511     95.89824    40.174703            0            0            0 
   54000          3.7    5.1451664    990.30925    65.443437    2776.6875    131.15192   -1.7459802     26.79873 -0.094609412    40.144423     95.89632    40.172999            0            0            0 
   55000         3.75    5.1835751     799.8422    109.12528    2321.9409      -29.157    -1.783006    26.585218   0.15604411    40.137768      95.8944     40.19233            0            0            0 
   56000          3.8    5.1582049    662.33631   -18.798818    1877.5344    130.63532   -1.6714625    26.406483  0.032174181    40.133329     95.89248    40.197026            0            0            0 
   57000         3.85    4.9886504    812.99815    137.78778    2363.5326   -59.965896   -1.5703813       26.658  -0.13125658    40.126061     95.89056    40.199409            0            0            0 
   58000          3.9    4.9280838    937.28621   -13.652368    2835.6912   -7.8356537   -1.6300512    26.799731 0.0032295676    40.135512     95.88864      40.1926            0            0            0 
   59000         3.95    5.0106976    755.88392    165.22366    2053.3285    51.501002   -1.8163005    26.375473   0.16590826    40.139774     95.88672    40.185063            0            0            0 
   60000            4    5.0709613    449.15594   -196.77782     1538.989    7.6210716   -2.0574859    26.295729  0.042535951    40.160215      95.8848    40.180454            0            0            0 
   61000         4.05    5.0265105    659.13571   -50.690228    2191.6631   -161.20957    -2.076811     26.58595  -0.13922039    40.161627     95.88288    40.173491            0            0            0 
   62000          4.1    4.9180704    917.06228    4.4975863    2616.1295    132.90065   -1.9617553    26.590866   0.10435669    40.158842     95.88096    40.162259            0            0            0 
   63000         4.15     4.773535    555.64316   -90.662758    1875.6798   -115.70355   -2.0689016    26.344696   0.15664247    40.159878     95.87904    40.179534            0            0            0 
   64000          4.2    4.7659971    407.17722   -133.31222    1377.1711   -19.953986   -2.0164145      26.1848 -0.037342573    40.155257     95.87712    40.185705            0            0            0 
   65000         4.25    4.8588492    744.54231    80.411449    2226.1722   -70.549686   -1.8549392    26.490015  -0.12760465    40.144165      95.8752    40.190008            0            0            0 
   66000          4.3    4.9653698    933.47473    35.196841    2734.9999    32.642139   -1.7298034    26.580234   0.10917534    40.141568     95.87328     40.18958            0            0            0 
   67000         4.35    5.0396876    696.84948     92.13961    1902.4892    98.311223   -1.8052185     26.22932    0.1422312    40.142569     95.87136    40.188718            0            0            0 
   68000          4.4    4.9357125    498.38396   -69.056808    1642.2094   -75.579905   -2.0677489    26.260206  -0.12118465    40.157338     95.86944    40.191596            0            0            0 
   69000         4.45    4.8970722    792.64819    35.629919    2341.2485    3.4633847   -2.0450045    26.456635  -0.05163027    40.158985     95.86752    40.179085            0            0            0 
   70000          4.5    4.8793992    985.76166    102.20013    2727.1849    130.29929   -1.9523257      26.4736   0.11106207     40.15758      95.8656    40.169189            0            0            0 
   71000         4.55    5.0362515    659.20384   -145.00414    2116.5347    8.4792103   -2.0846114    26.365421  0.072686691     40.16692     95.86368    40.177736            0            0            0 
   72000          4.6    5.2230392    530.74711   -35.163376    1713.9692   -84.160231   -2.1180468    26.227389  -0.18081472    40.160144     95.86176    40.185986            0            0            0 
   73000         4.65    5.2562173     766.2033   -41.899736    2367.8364   -24.906058   -1.9047492    26.425236 -0.059457862    40.150973     95.85984    40.190778            0            0            0 
   74000          4.7    5.1183161    989.22081    67.849193     2921.622   -19.403599   -1.6535111     26.54308   0.11823433    40.138234     95.85792    40.197212            0            0            0 
   75000         4.75    4.9992858     812.1132   -27.822816    2373.5626    93.008024   -1.6363098    26.361983 -0.042421168    40.137726       95.856    40.200379            0            0            0 
   76000          4.8    4.9334296    609.65947   -17.580124    2088.3972   -239.45714   -1.8974597    26.340962  -0.16193187    40.143512     95.85408    40.213108            0            0            0 
   77000         4.85    5.0807553    878.21806    14.449731    2518.3474    104.28264    -1.797048    26.377029 -0.027324446     40.14522     95.85216    40.196431            0            0            0 
   78000          4.9     5.134661    1036.9555     138.9147    2934.0239    40.329169   -1.7499246    26.483588   0.12076779     40.14555     95.85024     40.18865            0            0            0 
   79000         4.95    5.1243462    780.70376   -212.76914    2538.1164    19.178005   -1.9552611    26.479854  -0.10433026    40.162326     95.84832    40.188913            0            0            0 
   80000            5    4.9820113    744.75424    108.85056     2178.765   -50.962577   -2.0705579    26.278193  -0.13109849    40.155778      95.8464    40.193203            0            0            0 
   81000         5.05    4.9494248    893.07995    -74.59902    2642.6184    113.65024   -1.8649376    26.386232  0.053634102    40.153221     95.84448    40.193972            0            0            0 
   82000          5.1    4.8169599    1039.6829    72.253725    3126.0937   -76.886708   -1.6277806    26.547348    0.0549859    40.138737     95.84256    40.203223            0            0            0 
   83000         5.15    4.9149605    1000.7502   -58.220565    2955.8549    107.01101   -1.5860399    26.519997 -0.078007339    40.137263     95.84064    40.207181            0            0            0 
   84000          5.2     4.946381    839.16631    81.255881    2623.9262    -185.2582   -1.7416337    26.408399  -0.10865139    40.134646     95.83872    40.222611            0            0            0 
   85000         5.25    4.8930976    926.42554   -9.8201713    2695.3807    96.147573   -1.5944078    26.326713  0.096406804    40.135813      95.8368    40.210086            0            0            0 
   86000          5.3    4.8963276    1068.9793    38.557611    3217.4751   -46.668157   -1.6132271    26.551691  0.043647994    40.139733     95.83488    40.204995            0            0            0 
   87000         5.35    5.0649881    964.63817   -142.61465    3036.7213    2.2367857   -1.8336471    26.554112 -0.059562072    40.153793     95.83296    40.200297            0            0            0 
   88000          5.4    5.0062271    819.64155    86.940975    2418.4303    -44.04499   -1.9801544      26.2227  -0.05428359    40.152558     95.83104    40.200312            0            0            0 
   89000         5.45    4.9454327    858.11643    -93.80453     2652.386    18.185981   -1.8907579    26.287328   0.09630816    40.156727     95.82912    40.198385            0            0            0 
   90000          5.5    4.8880447    1085.7652    26.875561    3236.2964   -3.4349368    -1.764517    26.511157  0.095843618    40.149998      95.8272    40.197217            0            0            0 
   91000         5.55    4.8487762    1045.8995    7.5894685    3068.1879    64.396281   -1.8167131    26.440569 -0.088257746    40.150113     95.82528    40.200189            0            0            0 
   92000          5.6    5.0602282    785.76536    69.483862    2358.0521   -67.806652   -1.9495279    26.149361 -0.0032472906    40.150677     95.82336    40.210661            0            0            0 
   93000         5.65     5.196286    870.84676    61.192271    2453.1205    100.68171   -1.8329873     26.11365   0.12162236    40.149937     95.82144    40.203091            0            0            0 
   94000          5.7    5.3003059    1064.6377     18.11728    3164.5041    13.771767   -1.8285462    26.449087  0.078294592    40.153059     95.81952    40.198608            0            0            0 
   95000         5.75    5.2443778    993.91682    21.807497    2929.1996    33.172543   -1.9650615    26.361902 -0.084766747    40.158797      95.8176    40.196125            0            0            0 
   96000          5.8     5.127208    751.75613    98.669488    2098.3421    60.706954   -2.0882528    25.955712 0.0077695029    40.161336     95.81568    40.196587            0            0            0 
   97000         5.85    4.9747112    717.14069   -94.838553    2306.1909   -57.506834   -2.0912662    26.056521   0.15181388    40.167138     95.81376     40.19695            0            0            0 
   98000          5.9    4.9156652    1011.8557   -19.216884    3047.8573    9.3560075     -2.00116    26.344555 -0.020916241    40.164063     95.81184    40.189675            0            0            0 
   99000         5.95    5.0929401    995.62661     56.35357    2869.8629    63.103915   -2.0499924     26.23716 -0.092087185    40.164321     95.80992    40.190878            0            0            0 
  100000            6     5.120729    653.84752   -10.997527    2016.2469   -41.280441   -2.1544412     25.88693  0.024732929    40.167346       95.808    40.198787            0            0            0 
  101000         6.05     4.952797    690.74922   -41.537521    2123.4339   -7.2097488   -2.1119681    25.915109   0.13578987    40.166214     95.80608    40.197112            0            0            0 
  102000          6.1    4.8791882    974.60423    16.679419     2879.871    29.700306   -2.0612594    26.259886 -0.098338179     40.16541     95.80416    40.194738            0            0            0 
  103000         6.15     4.755533    943.31991    80.916749    2689.9356    61.547241   -2.0528554    26.099941  -0.10549309    40.163627     95.80224    40.194572            0            0            0 
  104000          6.2    4.8850442    637.33447    41.773652    1873.9079   -1.2341244   -2.1622593    25.751223  0.070213225    40.167712     95.80032    40.197582            0            0            0 
  105000         6.25    5.0408932    661.93154   -85.362349    2095.0603   -21.438468   -2.2623017    25.898853  0.050119041     40.17577      95.7984    40.196094            0            0            0 
  106000          6.3    5.0139754    970.97325    88.880807    2768.8869    57.634167   -2.1801641    26.123246  -0.13238254     40.17203     95.79648    40.186497            0            0            0 
  107000         6.35    4.9493081    918.84791    35.714309    2663.8527    59.400807   -2.1837858    26.007275   -0.0958735    40.174936     95.79456    40.184637            0            0            0 
  108000          6.4    4.8507463    605.51764   -74.267268    1973.3674   -80.045401   -2.3298546    25.769398   0.10113147    40.181267     95.79264    40.191036            0            0            0 
  109000         6.45    4.8481639    667.27812    -86.96877    2079.2759    11.964587   -2.3441208    25.823448 -0.021043984    40.180865     95.79072    40.189661            0            0            0 
  110000          6.5    4.9680481    892.84885    25.050233    2713.6032   -57.657054   -2.2221773    26.066335  -0.14561488    40.174848      95.7888    40.191841            0            0            0 
  111000         6.55    5.0930194     922.4827    1.9868879    2741.7473    26.219088   -2.0881773    25.984916 -0.014511933    40.170934     95.78688    40.192373            0            0            0 
  112000          6.6    5.1137817    738.96696   -28.172141    2292.5086   -44.975653   -2.1544014    25.822187   0.08400889     40.17028     95.78496    40.200827            0            0            0 
  113000         6.65    5.0330987     741.2535   -96.583148    2346.1067   -23.277052   -2.2166023    25.903242 -0.019856635    40.172397     95.78304    40.205793            0            0            0 
  114000          6.7    5.0246128    979.32708    135.00928    2805.9136  -0.47812501   -2.0590397    26.008023  -0.12423838    40.163548     95.78112    40.202643            0            0            0 
  115000         6.75    5.0380698    1022.8219   -19.611219     3043.062    47.463968   -1.9729294    26.044045  0.048682669    40.166507      95.7792    40.199728            0            0            0 
  116000          6.8    5.1830162    866.59396   -29.890549    2675.6224   -43.489589   -2.1324551    25.958747  0.067811058    40.170161     95.77728    40.204827            0            0            0 
  117000         6.85    5.2554326    811.60597   -14.225008    2395.6847    55.835016   -2.2148065     25.87936 -0.024490353    40.172221     95.77536    40.203984            0            0            0 
  118000          6.9    5.1563894    942.07541    72.484497    2813.8884   -57.707451   -2.1045796    25.980374  -0.09310766    40.168179     95.77344    40.204861            0            0            0 
  119000         6.95    5.0294158    1080.7678   -63.914531    3238.8219    69.840867   -1.9636749    26.068395  0.064743388    40.168108     95.77152    40.200162            0            0            0 
  120000            7    4.8858213    978.13922  -0.52986752    2952.5123     -15.1224   -2.0756252    26.007051  0.098976643    40.166788      95.7696    40.207951            0            0            0 
  121000         7.05    4.8442338    839.26396    -10.94784    2593.0188   -61.834944   -2.1608268    25.897201 -0.027451294    40.168963     95.76768    40.213097            0            0            0 
  122000          7.1    4.8844355    962.12352    28.582462    2900.8972    -40.66582   -2.0219995    25.921336 -0.031568961    40.165592     95.76576    40.208756            0            0            0 
  123000         7.15    4.9637173    1139.7432   -51.615224    3445.4266    27.879453   -1.9619594     26.10386  0.074227046    40.167484     95.76384    40.204264            0            0            0 
  124000          7.2    4.8727733    1055.9581   -29.328509    3179.9467    19.734113   -2.1056972    26.069307   0.11221416    40.170857     95.76192    40.207122            0            0            0 
  125000         7.25    4.8493461    904.02363    58.260054    2685.1431   -28.876139   -2.1804429    25.855789 -0.052402977    40.171308        95.76     40.21068            0            0            0 
  126000          7.3    4.9395412    1044.0419   -10.653392    3115.7937    29.464405   -2.0537704    25.941125 -0.055037835    40.170459     95.75808     40.20934            0            0            0 
  127000         7.35    4.9471651    1274.2887    63.663236    3694.5574    67.114694   -1.9334188    26.145497   0.10970222    40.164251     95.75616    40.207806            0            0            0 
  128000          7.4    4.9989334    1142.2086   -11.059269     3357.397    82.767595   -2.0048818    26.095105   0.05686327      40.1662     95.75424     40.21306            0            0            0 
  129000         7.45    4.9749721    946.24488    128.91825    2791.0011     -78.7048   -2.0797444    25.836801 -0.087956137    40.163882     95.75232    40.222442            0            0            0 
  130000          7.5    4.9445625    1034.6361   -25.249357    3024.5124    107.17165   -1.9479699    25.833848 -0.073319762     40.16422      95.7504    40.216535            0            0            0 
  131000         7.55    5.0144114    1190.8068    35.732051    3601.6142   -62.442877   -1.9378984    26.113638   0.14911216    40.162403     95.74848    40.218061            0            0            0 
  132000          7.6    5.1580323     1089.462    -62.05611    3246.5891    86.367448   -2.0093189    26.000142 -0.012101309    40.167573     95.74656    40.214636            0            0            0 
  133000         7.65    5.1776235    860.31887    122.09603    2615.4604   -154.13644   -2.1360986    25.682326  -0.12091131    40.167156     95.74464    40.220647            0            0            0 
  134000          7.7    5.1319389    877.84631   -209.38362    2833.0844    12.344878   -2.1187253    25.741793 -0.0092454772    40.177197     95.74272    40.212304            0            0            0 
  135000         7.75    4.9811316    1105.7506    65.704473    3358.7964   -104.75308    -2.141279    25.945065   0.12260113    40.172541      95.7408    40.207708            0            0            0 
  136000          7.8    4.9205987    1018.5402   -115.29245    3109.1405    64.262418   -2.2462362    25.873681 -0.072500629    40.184756     95.73888    40.201331            0            0            0 
  137000         7.85    4.9777629     816.7808    72.145405    2537.0404    -156.3814    -2.382267    25.564671  -0.14466825    40.185412     95.73696    40.205568            0            0            0 
  138000          7.9    5.1595878    861.54483   -172.64823    2642.5468    117.21008   -2.3412608    25.586847  0.043653117    40.190373     95.73504    40.198683            0            0            0 
  139000         7.95    5.2642768    1087.7979    110.42616    3224.6143   -69.155021   -2.3166574    25.881212  0.042636475    40.181892     95.73312    40.205254            0            0            0 
  140000            8    5.0803773    1091.9394    2.7326671    3100.6957    174.89189   -2.1969322    25.764989 -0.076291529    40.181834      95.7312    40.202501            0            0            0 
  141000         8.05    4.8697586    834.43812    145.86528    2483.2398   -123.29395   -2.2758876    25.459921 -0.099875268     40.17607     95.72928    40.216705            0            0            0 
  142000          8.1    4.7726148    834.57848   -131.75785    2560.0174    77.934857   -2.2808346    25.531145  0.065846643    40.182842     95.72736    40.213766            0            0            0 
  143000         8.15    4.8886156    1105.7637    180.21303    3157.5773   -18.005548   -2.2490376    25.763439  0.042705992    40.176979     95.72544    40.209046            0            0            0 
  144000          8.2     5.043107    1046.7413   -21.088112    3081.5942    82.202141   -2.2830344    25.686459  -0.08407675     40.18863     95.72352    40.200503            0            0            0 
  145000         8.25    5.0360824     772.1516    6.1808729    2408.3554   -95.607933   -2.4876299    25.387886 -0.024531084     40.19333      95.7216    40.203817            0            0            0 
  146000          8.3    4.9179494    776.43059   -136.23123    2382.3611    85.612711   -2.5474546    25.415116  0.050885923    40.199581     95.71968     40.19857            0            0            0 
  147000         8.35    4.8235566     953.0085    39.734346    2882.2993   -60.511609   -2.4809943    25.635986  0.074179581    40.194118     95.71776    40.201688            0            0            0 
  148000          8.4    4.7721854    984.46642   -4.5989715    2944.4335    16.063884   -2.3196387    25.542369 -0.095631893    40.190237     95.71584    40.200788            0            0            0 
  149000         8.45    4.8986937     784.4772   -55.889966    2491.2924   -79.467684   -2.3967485    25.360025    0.0246132    40.188399     95.71392    40.210751            0            0            0 
  150000          8.5    5.0380481    759.53575   -75.174851     2380.382   -24.115816   -2.4625126    25.389148  0.098839569    40.190569       95.712    40.212932            0            0            0 
  151000         8.55    5.0845854    968.33471    73.862943    2857.3486   -23.745297   -2.3726882    25.520723  0.065109647    40.187962     95.71008    40.206724            0            0            0 
  152000          8.6    5.0052694    1036.8995    5.4854155    3135.8008   -28.103098    -2.357625     25.54928 -0.050154133    40.193333     95.70816    40.200839            0            0            0 
  153000         8.65    5.0153993    955.63632   -39.742046    2832.8142    76.319751   -2.5303233    25.442214  0.034141339    40.200013     95.70624    40.199074            0            0            0 
  154000          8.7    5.0154113    900.15746    42.939896    2600.3498    59.662477   -2.6325685    25.404763   0.15890056    40.202128     95.70432    40.200014            0            0            0 
  155000         8.75    5.0686285    993.82219    3.0156413    2966.8256     14.12967   -2.4987836    25.506529 -0.014852788    40.199986      95.7024    40.200815            0            0            0 
  156000          8.8    5.1539898    1154.1496    71.152141    3359.8435    33.975183   -2.3128053    25.567833 -0.066850703    40.190156     95.70048    40.204796            0            0            0 
  157000         8.85    5.1402451    1090.0597   -9.1968022    3171.7149    110.17998   -2.3082872    25.543667  0.038281442    40.186014     95.69856    40.214163            0            0            0 
  158000          8.9    5.0657326     937.6866    43.026226    2850.9093   -78.377952   -2.3298271    25.479847   0.11275739    40.182326     95.69664     40.22611            0            0            0 
  159000         8.95     4.956713    1039.9257    29.624123    3086.5767    6.0466328   -2.1909481    25.464068 -0.075079438    40.180389     95.69472    40.222414            0            0            0 
  160000            9    4.9619739    1206.1697    39.869766     3580.455   0.68543146   -2.1785468    25.613695 -0.076643197    40.180529      95.6928    40.219825            0            0            0 
  161000         9.05    4.9563015    1126.2823   -72.474601    3405.9691    47.864501   -2.3081371     25.61377   0.11738529     40.18807     95.69088     40.21637            0            0            0 
  162000          9.1     4.982251    978.47286     16.45967    2975.6293   -54.185063   -2.4271365    25.449162  0.032818902    40.192341     95.68896    40.216203            0            0            0 
  163000         9.15    4.9184428    1052.8946   -24.681704    3177.6794    8.1787661    -2.382182    25.446121 -0.098828132    40.194879     95.68704    40.213102            0            0            0 
  164000          9.2    4.9028302    1250.5003    28.888951    3696.6113    28.491055   -2.2930114    25.609154 -0.081557053    40.189082     95.68512     40.21166            0            0            0 
  165000         9.25     4.981836     1212.454   -70.326219    3668.9571     41.21877   -2.3111006     25.67692   0.11899087    40.190659      95.6832    40.214944            0            0            0 
  166000          9.3    4.9872719     1085.199     49.92708    3254.6916     -46.5125   -2.3490782    25.473852 -0.051704486    40.188623     95.68128    40.222403            0            0            0 
  167000         9.35    4.9758067      1118.92    37.151238    3297.6264    24.506926   -2.2560686    25.393783  -0.13242922    40.185735     95.67936    40.221683            0            0            0 
  168000          9.4    4.8513107    1238.1559   -47.439593    3823.1296   -58.695918   -2.2305764    25.645589 -0.020217579    40.184942     95.67744    40.223255            0            0            0 
  169000         9.45    4.7941387    1302.1147   -12.896735    3864.1783    57.562419    -2.244057    25.689077  0.062498346    40.187249     95.67552    40.220182            0            0            0 
  170000          9.5    4.8979758    1156.5595     95.03946    3365.9897    11.175742   -2.3211689    25.426258 -0.052724314    40.188622      95.6736    40.222556            0            0            0 
  171000         9.55    5.1173789    1053.8979   -60.259705    3285.7831   -61.269655   -2.3549821     25.37107  -0.11626797    40.192553     95.67168    40.223798            0            0            0 
  172000          9.6    5.2280338    1277.4072   -1.2192296    3763.1653    72.810064   -2.3048667    25.565878  0.049033267    40.189584     95.66976    40.219147            0            0            0 
  173000         9.65    5.1514603    1312.0183     58.35589    3801.3664    78.842989   -2.2972737    25.601889  0.027207512    40.190275     95.66784    40.220479            0            0            0 
  174000          9.7    5.0006274    1062.9955    19.054296    3226.2186   -53.774517   -2.3405924     25.31202 -0.046022479    40.190817     95.66592    40.226845            0            0            0 
  175000         9.75    4.9051862    997.70565   -30.469806    3093.0869    -66.97319   -2.3448905    25.224346 -0.060476243    40.188842       95.664    40.229448            0            0            0 
  176000          9.8    5.0209507    1216.2396    -16.67498    3601.1223    66.772347   -2.3210042    25.488769  0.040474677    40.189251     95.66208     40.22638            0            0            0 
  177000         9.85     5.214658    1216.6419    36.697067    3621.7178   -5.9685966   -2.2965493    25.474611  0.063813612    40.190117     95.66016    40.223904            0            0            0 
  178000          9.9    5.3279282    993.77704 -0.067001793    3058.2289   -74.344786   -2.3934392    25.167055 -0.029631139    40.194322     95.65824    40.223427            0            0            0 
  179000         9.95    5.1512502    952.65198   -46.628797    2942.8078   -35.710824   -2.5501544    25.143007  0.004403503    40.200562     95.65632    40.222688            0            0            0 
  180000           10    4.9456907    1160.3234    4.6114516    3391.1669    87.668785   -2.5395561    25.330562  0.039962535    40.203605      95.6544    40.213566            0            0            0 
  181000        10.05    4.7699671    1169.1715    12.300814    3501.7344   -4.0138704   -2.5158243    25.309209   0.10290428    40.206295     95.65248    40.209945            0            0            0 
  182000         10.1    4.7736607    1016.6992    20.384588     3077.981   -45.753246   -2.6268861    25.085595 -0.029879107    40.209058     95.65056    40.212998            0            0            0 
  183000        10.15    4.9425645    990.08056   -24.870143    2909.7315    87.875429   -2.6968842    25.035589 -0.0023229299     40.21029     95.64864    40.212957            0            0            0 
  184000         10.2    5.0856308    1058.9202   0.56758141    3178.6107   0.11146533   -2.6192927    25.202583  0.082495416    40.208472     95.64672    40.214133            0            0            0 
  185000        10.25    5.0480035     1123.921   -13.051254    3413.5059   -26.164686   -2.4919732    25.207864  0.072918756    40.205026      95.6448    40.215215            0            0            0 
  186000         10.3     4.911286    1068.5576    94.230021    3125.0361   -11.049922    -2.527956    25.036021 -0.024682532    40.200861     95.64288    40.219166            0            0            0 
  187000        10.35    4.8190521    905.74807   -136.30044    2843.2591    12.809936   -2.6537506    25.018444 -0.016911087    40.208888     95.64096    40.222537            0            0            0 
  188000         10.4    4.8881958    975.56305    17.306159    3002.6904   -90.810068   -2.6202922    25.061872   0.09479582    40.207143     95.63904    40.220469            0            0            0 
  189000        10.45    4.9629734    1128.6734   -5.2245637    3356.9126    36.853674   -2.5270488    25.076922  0.013298195     40.20743     95.63712    40.213359            0            0            0 
  190000         10.5    4.9738441    1061.2474  -0.90068975    3271.0928   -83.916499   -2.6445904    25.067586  -0.07847266    40.209705      95.6352    40.217468            0            0            0 
  191000        10.55    4.9875225    958.22618   -112.75065    2902.8636    87.102025   -2.7324621    24.960024 -0.023642178    40.215519     95.63328     40.21431            0            0            0 
  192000         10.6    4.9841805    958.66474    69.725762    2923.9818   -115.16518   -2.7265379    24.929424  0.088645239    40.213397     95.63136    40.217034            0            0            0 
  193000        10.65    5.0726536    1101.2563   -63.487166    3325.0673     44.72514    -2.629065    25.006288 -0.023862283    40.215546     95.62944    40.210597            0            0            0 
  194000         10.7     5.172117    1178.2629    83.520725    3460.6267   -6.8171557   -2.6896385    25.074751  -0.10691033    40.211789     95.62752    40.212921            0            0            0 
  195000        10.75    5.1401952    1036.4903    -131.5155    3157.9593    85.591345   -2.7472838    25.020995  0.019292568    40.219895      95.6256    40.213676            0            0            0 
  196000         10.8    5.0405723    1015.4637    113.11156     3053.174   -117.36866   -2.7065867    24.889511  0.031946236    40.212674     95.62368    40.218325            0            0            0 
  197000        10.85    5.0152928     1151.668    -107.3003    3493.5785    71.260656   -2.6001656    25.015681 -0.068889234    40.214272     95.62176    40.215139            0            0            0 
  198000         10.9    5.0358354    1257.4792    50.467908    3812.5037   -87.992576   -2.6159986    25.191604  -0.11938784    40.207759     95.61984    40.221898            0            0            0 
  199000        10.95    5.0652534    1176.8057   -87.485941      3518.34    102.10859   -2.5764856    25.085177  0.022092889    40.212056     95.61792    40.218319            0            0            0 
  200000           11     5.076532    1031.8906    35.392742    3293.7545   -230.94964   -2.6381373    24.955805 0.0087076434    40.209671       95.616    40.228007            0            0            0 
  201000        11.05    5.0092248      1194.87    -126.7574    3649.8568    64.014881   -2.5635389    25.051706 -0.089193369    40.211773     95.61408    40.220331            0            0            0 
  202000         11.1    4.8712091    1321.0612    30.398284     3972.132   -36.842576   -2.5737586    25.223764 -0.058091706    40.207507     95.61216    40.223872            0            0            0 
  203000        11.15    4.8895795    1181.9785   -132.43993    3656.3856    24.477753       -2.557    25.108023  0.040835394    40.213214     95.61024    40.225848            0            0            0 
  204000         11.2    4.8983991    1151.9311    140.25692    3432.1542   -114.07548   -2.5520302    24.892952  0.030828651    40.203025     95.60832     40.23332            0            0            0 
  205000        11.25    4.9662766    1261.1202   -104.01118    3795.9563    93.952815     -2.49503    25.070262 -0.081846742    40.206406      95.6064    40.231778            0            0            0 
  206000         11.3    5.0099085    1403.0039    90.535094    4131.5458   -10.566041   -2.4695789    25.234603   0.01246503    40.201133     95.60448    40.234088            0            0            0 
  207000        11.35    4.9814736    1336.9869    20.067995    3913.5488    79.833652   -2.4488282    25.081626  0.055360269    40.205923     95.60256    40.228797            0            0            0 
  208000         11.4    4.8747522    1199.6245    54.364504    3684.5929   -137.54651   -2.6019354    24.968745  0.034831611    40.209102     95.60064     40.23359            0            0            0 
  209000        11.45    4.8592833    1303.1686     -91.8926    3886.5991    117.31956   -2.6208935    25.056231 -0.040895307    40.215259     95.59872    40.223991            0            0            0 
  210000         11.5    4.9765147    1406.5732    57.674212    4161.2816    3.3061551   -2.6252117    25.179472  0.011649066    40.214381      95.5968    40.223165            0            0            0 
  211000        11.55    5.0670705    1331.3565   -37.988178    4028.7112    5.8658969   -2.5889673    25.072771  0.086837042    40.217084     95.59488    40.223609            0            0            0 
  212000         11.6    5.0808362    1257.0608     39.10973    3771.0888   -36.453656   -2.5974896    24.923486  0.040111244    40.209771     95.59296    40.231745            0            0            0 
  213000        11.65    5.0071281    1309.3636   -61.753348    3934.2327    58.149454   -2.5497631    25.047629 -0.035510531    40.208141     95.59104    40.236995            0            0            0 
  214000         11.7    4.9949197    1406.4884    67.574154    4162.7951   -8.3652314   -2.4224566    25.113988  0.024114724      40.2018     95.58912     40.23942            0            0            0 
  215000        11.75    5.0334573    1324.4864    54.281147    3976.9711   -55.262979    -2.409418    24.965576   0.12067699    40.201826      95.5872    40.240079            0            0            0 
  216000         11.8    5.1642797    1220.4272   -7.3783911    3683.9397   -12.765143   -2.5871285    24.864286  0.010013271      40.2083     95.58528    40.240175            0            0            0 
  217000        11.85    5.2738073    1244.0376  -0.96836276    3657.5606    78.089243   -2.6732747    24.865369 -0.062217388    40.214408     95.58336    40.232346            0            0            0 
  218000         11.9    5.0998754    1232.3401   -19.354159     3783.259   -64.364736   -2.6723165    24.896097   0.05727236    40.219723     95.58144    40.227766            0            0            0 
  219000        11.95    4.9894126    1232.5252   -28.781812    3799.9731   -71.113186    -2.694775    24.832097  0.082570798     40.22062     95.57952    40.227159            0            0            0 
  220000           12    4.9252047    1217.8223    -30.05614    3616.2806    69.740556   -2.7466413    24.748386 -0.041688488    40.219827      95.5776    40.228426            0            0            0 
  221000        12.05    4.9268345    1104.1784   -54.241976    3423.7848   -54.476235   -2.7589373    24.733555 -0.074930004    40.219711     95.57568    40.234581            0            0            0 
  222000         12.1    5.0334247    1171.3635   -3.7807706    3602.5635   -82.142035   -2.6449081    24.742178  0.059997513    40.217325     95.57376    40.233339            0            0            0 
  223000        12.15    5.0472117    1298.5445    81.213021    3816.0166   0.91005498   -2.6470622    24.742897  0.022527083    40.214233     95.57184    40.232027            0            0            0 
  224000         12.2    4.9997442    1215.6821    -21.97652    3595.0697    76.479006   -2.7799851    24.708861 -0.069610763    40.221747     95.56992    40.230654            0            0            0 
  225000        12.25    4.9044791    1108.1134    13.027911     3359.463   -45.612753   -2.8577932    24.617117 -0.066708949    40.226917       95.568    40.228571            0            0            0 
  226000         12.3    4.8238376     1200.294    42.606245    3516.7218    44.088699   -2.8455097    24.582879  0.047836184    40.230307     95.56608    40.221106            0            0            0 
  227000        12.35    4.9153021    1276.4631    57.451337    3732.1579    42.324501   -2.8960213    24.650148 -0.012484847    40.230059     95.56416    40.221072            0            0            0 
  228000         12.4    4.9671415    1186.5927   -86.148423    3584.7378    63.710598    -2.915441    24.648069 -0.092116244    40.233617     95.56224    40.221203            0            0            0 
  229000        12.45    4.9725034    1070.9639    6.3443071    3297.2261   -88.140915   -2.9037157    24.518571 -0.067926061    40.231079     95.56032    40.227025            0            0            0 
  230000         12.5    4.9585124    1084.5876  -0.53901458    3293.9936   -37.148434   -2.8457515    24.437294  0.037971296    40.228372      95.5584    40.228755            0            0            0 
  231000        12.55    4.9801446    1151.3999   -53.121447    3535.4522   -25.567685   -2.8359247    24.539245 -0.020726283    40.225959     95.55648    40.230976            0            0            0 
  232000         12.6     4.922279    1151.1855   -94.175691    3578.9167   -28.638984   -2.8477778    24.609091 -0.079832488    40.229229     95.55456    40.230397            0            0            0 
  233000        12.65    5.0650037     1110.817    24.851883    3385.4676   -75.281015    -2.869466    24.468576 -0.020227425    40.230194     95.55264    40.229425            0            0            0 
  234000         12.7    5.1297021    1112.9014   -7.4610641    3378.0252   -29.288009   -2.9167138    24.390852  0.069800678    40.232271     95.55072    40.227125            0            0            0 
  235000        12.75    5.0685136    1198.6034   -83.131279    3666.5008    15.012443   -2.9589113    24.558259 -0.0078998792    40.235503      95.5488     40.22556            0            0            0 
  236000         12.8    5.0791769    1315.8454      12.2296    3888.0599    49.796515    -2.910727    24.636579 -0.086496205    40.235137     95.54688    40.222464            0            0            0 
  237000        12.85    5.1798258    1257.5657    68.964224    3712.3295   -5.9954872   -2.8823362    24.494219  0.044906778      40.2331     95.54496    40.224542            0            0            0 
  238000         12.9    5.2107145    1183.5671   -48.253543    3626.1978   -24.690184   -2.9210645    24.455686  0.082866935     40.23275     95.54304    40.230948            0            0            0 
  239000        12.95    5.1224468     1327.701    4.4403957    3910.2897    70.911686   -2.8514752    24.584075 -0.038986495     40.22869     95.54112    40.231315            0            0            0 
  240000           13    5.0130031    1384.4542    21.234335    4133.2262    1.4316205    -2.768967    24.669437 -0.054820786    40.227406      95.5392    40.232099            0            0            0 
  241000        13.05    4.8781115    1304.7461    4.4806987     4014.593   -102.27202   -2.7903807    24.582419  0.085761193    40.228884     95.53728    40.234702            0            0            0 
  242000         13.1    4.8153845    1341.0957   -7.2496691    3969.3883    63.695099   -2.8692682    24.517022   0.09210963    40.230136     95.53536    40.233056            0            0            0 
  243000        13.15    4.8745443    1342.6192   -34.208823    4023.2491    41.307842   -2.8932573    24.593404 -0.066893131    40.233415     95.53344    40.232564            0            0            0 
  244000         13.2    5.0248493    1365.2018   -29.987348    4194.5835   -66.455558   -2.8233785     24.64339 -0.0048940254    40.233204     95.53152    40.232345            0            0            0 
  245000        13.25    4.9928032    1468.1997    66.476585    4327.8532    12.795579   -2.7796489    24.607159  0.094497329    40.229271      95.5296    40.232324            0            0            0 
  246000         13.3    5.0097632    1404.4017   -48.028793    4194.9247     68.88091   -2.8342666    24.600422  0.056818196    40.229756     95.52768    40.238395            0            0            0 
  247000        13.35     4.888551    1320.5584   -28.233666    4050.3644   -57.942913   -2.7859564     24.57121  -0.10346638    40.227147     95.52576    40.243034            0            0            0 
  248000         13.4    4.8484984     1412.377    8.0974805    4278.4267   -46.882204   -2.6995323    24.594654 0.0094271584    40.225089     95.52384     40.24258            0            0            0 
  249000        13.45    5.0223474    1534.7689    73.403895    4534.3042  -0.85378559   -2.7151674    24.658686  0.065122381    40.223704     95.52192     40.24268            0            0            0 
  250000         13.5    5.0787614    1441.8645   -98.315317    4365.4221    61.034802   -2.7666771    24.630055 0.0043535411    40.227922        95.52    40.241949            0            0            0 
  251000        13.55    5.0676516    1351.9396    4.4648379    4142.2426   -88.350308   -2.8013788    24.547398 -0.084608372    40.229067     95.51808    40.244682            0            0            0 
  252000         13.6    5.0052924    1441.4137    9.1340634    4291.2838    26.372663   -2.7618424    24.522583 -0.0052422218    40.229784     95.51616     40.24206            0            0            0 
  253000        13.65    4.8535244    1544.1027     76.25516    4551.5831    7.0213451   -2.7478223    24.605998  0.076828438    40.225551     95.51424    40.244196            0            0            0 
  254000         13.7    4.9644848    1477.5075   -69.308326    4429.1111     75.25083   -2.7649456    24.595152 -0.052058793    40.228994     95.51232    40.244831            0            0            0 
  255000        13.75    5.0625413    1399.0322    101.07945     4143.577   -44.954665   -2.8020686    24.443239  -0.12096825    40.228076      95.5104    40.247373            0            0            0 
[...]
  937000        47.85    5.0179273    5616.1368   -26.987309    16836.698     41.38382   -5.8281775    13.049176  0.018663091    40.545092     94.20096    40.461912            0            0            0 
  938000         47.9    4.9487118    5680.5196    87.803339    16969.807   -13.328165   -5.7343661    13.059876 -0.016278717    40.536171     94.19904     40.46879            0            0            0 
  939000        47.95    4.9561833    5684.2395    50.679019    16977.692    27.060721   -5.7213403    13.217041 -0.013615892    40.538334     94.19712    40.467869            0            0            0 
  940000           48    4.9026891    5669.7331    46.302397    17001.266   -35.647752   -5.8305099    13.394786  0.086371092    40.544206      94.1952    40.465042            0            0            0 
  941000        48.05    4.9669738    5710.9111   -36.406176    17073.244    98.578812     -5.90104    13.421067 0.00050352473    40.552872     94.19328    40.455273            0            0            0 
  942000         48.1    5.0707889    5717.4699    26.468595     17143.23   -14.564341   -5.9455255    13.408555 -0.040037501    40.556182     94.19136    40.451981            0            0            0 
  943000        48.15    5.1386344    5720.1909   -41.176981    17156.007    48.479038   -5.9243373    13.492933  0.045792653    40.558001     94.18944    40.450261            0            0            0 
  944000         48.2    5.0498959     5691.956   -23.649018    17156.365   -54.165897   -5.9102409    13.540642  0.092066941    40.552161     94.18752    40.460993            0            0            0 
  945000        48.25    5.0129616    5725.1197   -44.233747    17201.251    21.052076   -5.7873107     13.47894 -0.035872332    40.544447      94.1856    40.467078            0            0            0 
  946000         48.3    4.9261175    5737.3164     29.40275    17283.276   -98.028997   -5.7259758    13.471369 0.0023904986    40.539576     94.18368    40.472318            0            0            0 
  947000        48.35    4.9700753    5742.0896    2.7991676    17254.723   -28.565699   -5.7767848    13.531028   0.05042263    40.544473     94.18176    40.469621            0            0            0 
  948000         48.4    5.0813069    5750.9719   -22.980791    17288.007    -9.376835   -5.8789665    13.453943  0.024768555    40.550438     94.17984    40.465299            0            0            0 
  949000        48.45    5.0652331    5784.7879   -31.186809    17345.496    42.769266   -5.9088398    13.282537 -0.017081574    40.555462     94.17792    40.458489            0            0            0 
  950000         48.5    5.0883712    5836.9097    23.992134    17469.696    19.764104   -5.9273357    13.232332 -0.0050736652    40.557908       94.176    40.455359            0            0            0 
  951000        48.55    5.0590156     5862.663    57.150492    17478.589    54.969061   -5.9356958    13.259628 -0.0033223477    40.557048     94.17408    40.456601            0            0            0 
  952000         48.6    4.9292636    5817.4026   -38.906343    17477.402    16.396553   -5.9152943    13.194465  0.024782515    40.555456     94.17216    40.462778            0            0            0 
  953000        48.65    4.9588053    5906.3133    97.925948    17611.605    12.134192    -5.839286    13.133927 -0.0058019179    40.549126     94.17024    40.463932            0            0            0 
  954000         48.7    4.9972583    5931.9872    57.425484    17701.175    40.038129   -5.8594504    13.181426 -0.070987627    40.553661     94.16832    40.459902            0            0            0 
  955000        48.75    4.9800091    5854.9792    17.104979    17591.752    -41.19901   -5.9765657    13.189633 0.0049949556    40.560442      94.1664    40.458638            0            0            0 
  956000         48.8    4.9935709    5910.2561   -55.468665    17720.357    68.582817   -6.0067793    13.098258  0.025910881     40.56501     94.16448    40.452299            0            0            0 
  957000        48.85    4.8712632    5951.1564    51.616492    17791.865    12.676604   -5.9875314    13.062648 -0.068540677    40.563626     94.16256    40.451509            0            0            0 
  958000         48.9    4.9459651    5877.6504   -82.642382    17732.019   -13.746957    -5.979924    13.081249 -0.063810196     40.56595     94.16064    40.454999            0            0            0 
  959000        48.95    4.9837041    5898.3235    7.5798205    17727.356   -37.268665   -5.9409749    12.967012  0.022275532    40.557959     94.15872    40.463685            0            0            0 
  960000           49    4.9748553    5942.3189   -26.465216    17839.465    16.616051   -5.8546482    12.754671 -0.011707052    40.553153      94.1568    40.468324            0            0            0 
  961000        49.05    5.0361905    5939.2729    53.780908    17854.537   -87.772665   -5.8190246    12.651505 -0.065711973    40.551168     94.15488    40.470004            0            0            0 
  962000         49.1    5.0357712    5947.8521   -24.495173     17892.61   -21.826692   -5.8886841    12.623711 0.0039241832    40.557901     94.15296    40.465837            0            0            0 
  963000        49.15     5.007379    5952.2922    -22.21123     17875.56    6.2501118   -5.9783316    12.531435  0.028877469    40.562321     94.15104    40.463675            0            0            0 
  964000         49.2    5.0172894    5989.9591   -42.475282    18001.733    13.325974    -5.974017    12.469256 -0.0022935345     40.56475     94.14912    40.459698            0            0            0 
  965000        49.25    5.0490904      6023.25    17.933732    18062.373   -7.8686106   -5.9371516    12.538862 -0.031834979     40.56381      94.1472    40.459627            0            0            0 
  966000         49.3     5.089883    5990.9847   -26.480444    18013.288   -11.155749   -5.9427764    12.584949  0.035646444    40.561746     94.14528    40.466757            0            0            0 
  967000        49.35    4.9417787    6011.8428    -28.65359    18065.035     1.833752   -5.8864155    12.518032   0.03545485    40.556016     94.14336    40.472346            0            0            0 
  968000         49.4    4.9529573    6065.5429    43.290273    18192.966   -36.941702   -5.8379448    12.527677 0.0013558525    40.553463     94.14144    40.472586            0            0            0 
  969000        49.45    5.0074236    6055.0575    19.047366    18159.166   -10.324522    -5.880721    12.664005 -0.0067809312    40.559989     94.13952    40.468398            0            0            0 
  970000         49.5    5.0468608    6051.2842    -10.61731    18173.247   -6.0994167   -5.9870542    12.713439  0.042681414     40.56505      94.1376    40.466064            0            0            0 
  971000        49.55    5.0767688    6101.0459   -22.832755    18248.021    80.677252   -6.0066575    12.663152  0.059399198    40.567973     94.13568    40.461876            0            0            0 
  972000         49.6    5.0161801    6101.8431    12.767486    18284.468    11.012075   -5.9741211    12.689059 -0.019241405    40.567641     94.13376    40.463806            0            0            0 
  973000        49.65    4.9465981    6104.1303    20.468958    18283.237    11.401401   -5.9107337    12.760179  0.010931802    40.562775     94.13184     40.47014            0            0            0 
  974000         49.7    4.9037206    6092.9157    3.6921932    18275.716    2.0124957   -5.8674625    12.733069  0.039475413    40.555359     94.12992    40.481302            0            0            0 
  975000        49.75    4.9873753    6103.6223    17.327015    18311.635   -15.378028   -5.7916991    12.703807  0.051969659    40.550598       94.128    40.486138            0            0            0 
  976000         49.8    5.0314886    6146.7303    32.306726    18436.569   -26.003347   -5.7639553    12.811665 -0.053213394    40.551812     94.12608    40.482953            0            0            0 
  977000        49.85     5.041678    6127.5098    20.567837    18388.747   -24.065807   -5.8747585    12.899135 -0.0039093319    40.558963     94.12416    40.479197            0            0            0 
  978000         49.9    4.9851262    6120.0846   -72.715477    18402.094    33.594509    -5.976408    12.852067  0.017551424    40.566788     94.12224    40.473597            0            0            0 
  979000        49.95    4.9735927    6158.9797   -2.4678491    18499.202   -17.107497   -5.9689757    12.864061  0.015364016    40.567466     94.12032    40.469587            0            0            0 
  980000           50    4.9807563    6155.8357    -54.60384    18530.408   -5.5729535   -5.9441728    13.014324 -0.069393114    40.569361      94.1184    40.469396            0            0            0 
  981000        50.05    4.9633925    6182.4832    19.006561     18559.54   -28.407883   -5.9433618    13.125062 -0.0084786419    40.563987     94.11648    40.476055            0            0            0 
  982000         50.1    5.0184767    6189.2127   -58.608572    18631.146   -2.1941558   -5.8969802    13.158905  0.014114528    40.561584     94.11456    40.479681            0            0            0 
  983000        50.15    5.0665484    6217.6674    43.435688    18694.777   -82.489005   -5.8540349     13.27302 -0.014437261     40.55897     94.11264    40.480801            0            0            0 
  984000         50.2    5.0840701    6263.2708   -7.8917633    18775.813    24.618308   -5.8811827     13.42144 -0.065331644    40.564328     94.11072    40.475077            0            0            0 
  985000        50.25    5.0116815    6207.9883   -34.351753    18693.889   -32.904468   -5.9962661    13.421905 -0.030867045    40.569205      94.1088    40.475362            0            0            0 
  986000         50.3     4.958996    6231.7782   -68.629945     18756.05     10.63776   -6.0100276    13.353078  0.017955724    40.572423     94.10688    40.472288            0            0            0 
  987000        50.35    4.9912968    6320.1646    40.042597     18915.29    7.8521789   -5.9469874    13.395675 -0.038064852    40.569557     94.10496    40.470823            0            0            0 
  988000         50.4    5.0289981    6288.6011   -10.205405    18871.811    6.8893732   -5.9432471     13.42967 -0.047122437    40.569088     94.10304    40.475473            0            0            0 
  989000        50.45    4.9751661    6263.4147   -30.373317    18839.728   -16.415161   -5.9451376    13.325629 -0.010793254    40.565525     94.10112    40.482906            0            0            0 
  990000         50.5    4.9742939    6354.4422    67.031372    19001.321   -2.3068447   -5.8816075     13.26122  0.047935666    40.561285      94.0992    40.482762            0            0            0 
  991000        50.55    4.9916565    6360.2883    31.413186    19036.689    15.455822     -5.88028     13.33065  -0.02556462    40.566281     94.09728    40.478518            0            0            0 
  992000         50.6    4.9640987    6340.1826     21.49665    19020.191   -18.433425   -5.9873154    13.338796 -0.021142525    40.571462     94.09536    40.476527            0            0            0 
  993000        50.65    5.0295647    6372.8754   -30.142001    19086.091    65.410746   -6.0458185    13.239614  0.029526706    40.575553     94.09344    40.471798            0            0            0 
  994000         50.7    5.0062822    6402.1399    42.333737    19165.223     1.552472    -6.037729    13.219965  0.063955507    40.576591     94.09152    40.470163            0            0            0 
  995000        50.75    4.9558701    6446.1013    14.113766    19256.194    70.672104    -5.996842    13.274257 -0.031079716    40.577551      94.0896     40.46751            0            0            0 
  996000         50.8    4.9111637    6409.7602    43.358528    19210.735   -22.108133   -6.0376319    13.228115 -0.0076308473    40.574301     94.08768    40.474761            0            0            0 
  997000        50.85    4.9947957    6392.4004   -52.118886     19220.83    11.194178   -6.0193569    13.140117  0.063105624    40.574577     94.08576    40.476975            0            0            0 
  998000         50.9     5.019259    6472.8272    52.472998    19378.159   -9.4445939    -5.953807    13.175228  0.045838591    40.572164     94.08384    40.474413            0            0            0 
  999000        50.95    4.9527908    6453.2547   -26.065044    19391.266   -2.7278261     -5.98993    13.207299 -0.023187897    40.577311     94.08192    40.473064            0            0            0 
 1000000           51    5.0377794    6400.1333   -35.166497    19296.263   -57.975053   -6.0770656    13.072467 0.0065322102    40.578793        94.08     40.47658            0            0            0 
Loop time of 52184.1 on 32 procs for 1000000 steps with 24000 atoms

Performance: 0.083 ns/day, 289.911 hours/ns, 19.163 timesteps/s
100.0% CPU use with 32 MPI tasks x no OpenMP threads

MPI task timing breakdown:
Section |  min time  |  avg time  |  max time  |%varavg| %total
---------------------------------------------------------------
Pair    | 18448      | 19003      | 19315      | 133.7 | 36.42
Bond    | 11.546     | 12.621     | 14.088     |  15.1 |  0.02
Kspace  | 13144      | 13449      | 13986      | 154.3 | 25.77
Neigh   | 0.40859    | 0.40937    | 0.41066    |   0.1 |  0.00
Comm    | 1563.8     | 1591.6     | 1621.6     |  34.9 |  3.05
Output  | 1.4729     | 3.4843     | 5.088      |  73.4 |  0.01
Modify  | 14485      | 15972      | 17937      |1065.2 | 30.61
Other   |            | 2152       |            |       |  4.12

Nlocal:        750.000 ave         829 max         691 min
Histogram: 3 7 1 5 5 1 4 1 2 3
Nghost:        15256.0 ave       15315 max       15177 min
Histogram: 3 2 1 4 1 5 5 1 7 3
Neighs:        421873.0 ave      468018 max      387348 min
Histogram: 3 6 2 5 5 1 4 2 2 2

Total # of neighbors = 13499946
Ave neighs/atom = 562.49775
Ave special neighs/atom = 1.0000000
Neighbor list builds = 20
Dangerous builds = 0

# ---------------- 最终输出 ----------------
unfix           ndef
unfix           npt_dyn
unfix           fmom2
unfix           pout0
unfix           pavg1
unfix           pavg2
unfix           ssout0
unfix           ssavg1
unfix           ssavg2
undump          4

run             0
PPPM initialization ...
  using polynomial approximation for long-range coulomb (../kspace.cpp:342)
  G vector (1/distance) = 0.35144256
  grid = 75 144 75
  stencil order = 5
  estimated absolute RMS force accuracy = 0.00016986031
  estimated relative force accuracy = 1.1796145e-05
  using double precision KISS FFT
  3d grid and FFT values/proc = 57132 32400
Per MPI rank memory allocation (min/avg/max) = 22.56 | 22.95 | 23.55 Mbytes
Step Time Temp Press Pxx Pyy Pzz v_Px v_Py v_Pz Lx Ly Lz Xy Xz Yz 
 1000000           51     5.037779    6400.2137   -35.091738    19296.357   -57.903277   -6.0770656    13.072467 0.0065322102    40.578793        94.08     40.47658            0            0            0 
Loop time of 4.12995e-06 on 32 procs for 0 steps with 24000 atoms

115.0% CPU use with 32 MPI tasks x no OpenMP threads

MPI task timing breakdown:
Section |  min time  |  avg time  |  max time  |%varavg| %total
---------------------------------------------------------------
Pair    | 0          | 0          | 0          |   0.0 |  0.00
Bond    | 0          | 0          | 0          |   0.0 |  0.00
Kspace  | 0          | 0          | 0          |   0.0 |  0.00
Neigh   | 0          | 0          | 0          |   0.0 |  0.00
Comm    | 0          | 0          | 0          |   0.0 |  0.00
Output  | 0          | 0          | 0          |   0.0 |  0.00
Modify  | 0          | 0          | 0          |   0.0 |  0.00
Other   |            | 4.13e-06   |            |       |100.00

Nlocal:        750.000 ave         829 max         691 min
Histogram: 3 7 1 5 5 1 4 1 2 3
Nghost:        15256.0 ave       15315 max       15177 min
Histogram: 3 2 1 4 1 5 5 1 7 3
Neighs:        421873.0 ave      468018 max      387348 min
Histogram: 3 6 2 5 5 1 4 2 2 2

Total # of neighbors = 13499946
Ave neighs/atom = 562.49775
Ave special neighs/atom = 1.0000000
Neighbor list builds = 0
Dangerous builds = 0
write_data      ${TAG}_end.data pair ij
write_data      twin_ycompress_cont_2pct_end.data pair ij
System init for write_data ...
PPPM initialization ...
  using polynomial approximation for long-range coulomb (../kspace.cpp:342)
  G vector (1/distance) = 0.35144256
  grid = 75 144 75
  stencil order = 5
  estimated absolute RMS force accuracy = 0.00016986031
  estimated relative force accuracy = 1.1796145e-05
  using double precision KISS FFT
  3d grid and FFT values/proc = 57132 32400
write_restart   ${TAG}_end.restart
write_restart   twin_ycompress_cont_2pct_end.restart
System init for write_restart ...
PPPM initialization ...
  using polynomial approximation for long-range coulomb (../kspace.cpp:342)
  G vector (1/distance) = 0.35144256
  grid = 75 144 75
  stencil order = 5
  estimated absolute RMS force accuracy = 0.00016986031
  estimated relative force accuracy = 1.1796145e-05
  using double precision KISS FFT
  3d grid and FFT values/proc = 57132 32400

dump            5 all custom 1 ${TAG}_end.dump id mol type q x y z fx fy fz c_dis[1] c_dis[2] c_dis[3] c_dis[4] c_myKE c_myPE v_Mise
dump            5 all custom 1 twin_ycompress_cont_2pct_end.dump id mol type q x y z fx fy fz c_dis[1] c_dis[2] c_dis[3] c_dis[4] c_myKE c_myPE v_Mise
dump_modify     5 sort id first yes
run             0
PPPM initialization ...
  using polynomial approximation for long-range coulomb (../kspace.cpp:342)
  G vector (1/distance) = 0.35144256
  grid = 75 144 75
  stencil order = 5
  estimated absolute RMS force accuracy = 0.00016986031
  estimated relative force accuracy = 1.1796145e-05
  using double precision KISS FFT
  3d grid and FFT values/proc = 57132 32400
Per MPI rank memory allocation (min/avg/max) = 24.19 | 24.57 | 25.18 Mbytes
Step Time Temp Press Pxx Pyy Pzz v_Px v_Py v_Pz Lx Ly Lz Xy Xz Yz 
 1000000           51     5.037779    6400.2137   -35.091738    19296.357   -57.903277   -6.0770656    13.072467 0.0065322102    40.578793        94.08     40.47658            0            0            0 
Loop time of 3.41231e-06 on 32 procs for 0 steps with 24000 atoms

112.6% CPU use with 32 MPI tasks x no OpenMP threads

MPI task timing breakdown:
Section |  min time  |  avg time  |  max time  |%varavg| %total
---------------------------------------------------------------
Pair    | 0          | 0          | 0          |   0.0 |  0.00
Bond    | 0          | 0          | 0          |   0.0 |  0.00
Kspace  | 0          | 0          | 0          |   0.0 |  0.00
Neigh   | 0          | 0          | 0          |   0.0 |  0.00
Comm    | 0          | 0          | 0          |   0.0 |  0.00
Output  | 0          | 0          | 0          |   0.0 |  0.00
Modify  | 0          | 0          | 0          |   0.0 |  0.00
Other   |            | 3.412e-06  |            |       |100.00

Nlocal:        750.000 ave         829 max         691 min
Histogram: 3 7 1 5 5 1 4 1 2 3
Nghost:        15256.0 ave       15315 max       15177 min
Histogram: 3 2 1 4 1 5 5 1 7 3
Neighs:        421873.0 ave      468018 max      387348 min
Histogram: 3 6 2 5 5 1 4 2 2 2

Total # of neighbors = 13499946
Ave neighs/atom = 562.49775
Ave special neighs/atom = 1.0000000
Neighbor list builds = 0
Dangerous builds = 0
undump          5

quit
