VARIABLES= "Y" "Z" "Xsec" "Px" "Py" "Pz" "U" "V" "W" "Pmag"
ZONE T="YZ_mid_T1.500_C19.943_TS0", I=24, J=10, K=1, DATAPACKING=POINT, STRANDID=1, SOLUTIONTIME=0.000000
-43.95140 -15.92476 19.94322 -1.51641e-01 1.35865e-01 -1.59732e-01 1.35865e-01 -1.59732e-01 -1.51641e-01 2.58783e-01
-39.95520 -15.95596 19.94322 -1.41729e-01 1.37582e-01 -1.70727e-01 1.37582e-01 -1.70727e-01 -1.41729e-01 2.61082e-01
-35.94820 -15.98306 19.94322 -1.22107e-01 1.36242e-01 -1.67425e-01 1.36242e-01 -1.67425e-01 -1.22107e-01 2.47998e-01
-31.94110 -16.00576 19.94322 -1.16496e-01 1.35840e-01 -1.68295e-01 1.35840e-01 -1.68295e-01 -1.16496e-01 2.45656e-01
-27.93310 -16.01956 19.94322 -1.40467e-01 1.37071e-01 -1.72909e-01 1.37071e-01 -1.72909e-01 -1.40467e-01 2.61566e-01
-23.93760 -16.03756 19.94322 -1.41171e-01 1.23896e-01 -1.69399e-01 1.23896e-01 -1.69399e-01 -1.41171e-01 2.52934e-01
-19.95980 -16.06246 19.94322 -1.47372e-01 1.22275e-01 -1.71100e-01 1.22275e-01 -1.71100e-01 -1.47372e-01 2.56798e-01
-15.95920 -16.10686 19.94322 -1.36457e-01 1.32456e-01 -1.77299e-01 1.32456e-01 -1.77299e-01 -1.36457e-01 2.60000e-01
-11.96070 -16.14576 19.94322 -1.44048e-01 1.38399e-01 -1.66802e-01 1.38399e-01 -1.66802e-01 -1.44048e-01 2.60245e-01
-7.96200 -16.17876 19.94322 -1.49882e-01 1.33874e-01 -1.62062e-01 1.33874e-01 -1.62062e-01 -1.49882e-01 2.58168e-01
-3.97370 -16.21216 19.94322 -1.50106e-01 1.25788e-01 -1.43573e-01 1.25788e-01 -1.43573e-01 -1.50106e-01 2.42832e-01
0.02839 -16.07326 19.94322 -1.49326e-01 1.31758e-01 1.27185e-01 1.31758e-01 1.27185e-01 -1.49326e-01 2.36294e-01
4.03896 -16.03846 19.94322 -1.54820e-01 1.34233e-01 1.55213e-01 1.34233e-01 1.55213e-01 -1.54820e-01 2.57058e-01
8.03766 -16.01476 19.94322 -1.51866e-01 1.24282e-01 1.75258e-01 1.24282e-01 1.75258e-01 -1.51866e-01 2.63106e-01
12.04910 -15.98516 19.94322 -1.60396e-01 1.26314e-01 1.63059e-01 1.26314e-01 1.63059e-01 -1.60396e-01 2.61286e-01
16.04590 -15.96516 19.94322 -1.54126e-01 1.23874e-01 1.62285e-01 1.23874e-01 1.62285e-01 -1.54126e-01 2.55805e-01
20.04640 -15.90986 19.94322 -1.50006e-01 1.33673e-01 1.74715e-01 1.33673e-01 1.74715e-01 -1.50006e-01 2.66262e-01
24.04190 -15.87806 19.94322 -1.45073e-01 1.44748e-01 1.70097e-01 1.44748e-01 1.70097e-01 -1.45073e-01 2.66329e-01
28.04850 -15.86176 19.94322 -1.47245e-01 1.48006e-01 1.67071e-01 1.48006e-01 1.67071e-01 -1.47245e-01 2.67394e-01
32.05870 -15.84136 19.94322 -1.58940e-01 1.37598e-01 1.53426e-01 1.37598e-01 1.53426e-01 -1.58940e-01 2.60259e-01
36.07510 -15.81256 19.94322 -1.56476e-01 1.38544e-01 1.55229e-01 1.38544e-01 1.55229e-01 -1.56476e-01 2.60336e-01
40.07890 -15.77466 19.94322 -1.46537e-01 1.42924e-01 1.58163e-01 1.42924e-01 1.58163e-01 -1.46537e-01 2.58681e-01
44.07570 -15.73066 19.94322 -1.49339e-01 1.39621e-01 1.56357e-01 1.39621e-01 1.56357e-01 -1.49339e-01 2.57379e-01
48.07140 -15.89476 19.94322 -1.51385e-01 1.40076e-01 -1.51128e-01 1.40076e-01 -1.51128e-01 -1.51385e-01 2.55692e-01
-43.93520 -11.89516 19.94322 -1.28758e-01 1.35847e-01 -1.62844e-01 1.35847e-01 -1.62844e-01 -1.28758e-01 2.48095e-01
-39.94340 -11.93266 19.94322 -1.56842e-01 1.35069e-01 -1.70326e-01 1.35069e-01 -1.70326e-01 -1.56842e-01 2.68056e-01
-35.93850 -11.97056 19.94322 -1.39973e-01 1.44060e-01 -1.74105e-01 1.44060e-01 -1.74105e-01 -1.39973e-01 2.65816e-01
-31.92950 -11.98356 19.94322 -1.34617e-01 1.48503e-01 -1.69514e-01 1.48503e-01 -1.69514e-01 -1.34617e-01 2.62507e-01
-27.92830 -12.00226 19.94322 -1.36173e-01 1.46301e-01 -1.71526e-01 1.46301e-01 -1.71526e-01 -1.36173e-01 2.63378e-01
-23.92700 -12.01596 19.94322 -1.49770e-01 1.37072e-01 -1.64327e-01 1.37072e-01 -1.64327e-01 -1.49770e-01 2.61196e-01
-19.94780 -12.03746 19.94322 -1.47018e-01 1.24753e-01 -1.65678e-01 1.24753e-01 -1.65678e-01 -1.47018e-01 2.54218e-01
-15.93710 -12.07436 19.94322 -1.38993e-01 1.31472e-01 -1.69020e-01 1.31472e-01 -1.69020e-01 -1.38993e-01 2.55288e-01
-11.95980 -12.12016 19.94322 -1.39465e-01 1.32387e-01 -1.64463e-01 1.32387e-01 -1.64463e-01 -1.39465e-01 2.53031e-01
-7.96620 -12.14656 19.94322 -1.55112e-01 1.30234e-01 -1.53189e-01 1.30234e-01 -1.53189e-01 -1.55112e-01 2.53944e-01
-3.97660 -12.19326 19.94322 -1.43097e-01 1.42017e-01 -1.54520e-01 1.42017e-01 -1.54520e-01 -1.43097e-01 2.54012e-01
0.03780 -12.03396 19.94322 -1.41503e-01 1.49951e-01 1.36765e-01 1.49951e-01 1.36765e-01 -1.41503e-01 2.47413e-01
4.03754 -12.02136 19.94322 -1.45858e-01 1.49075e-01 1.54125e-01 1.49075e-01 1.54125e-01 -1.45858e-01 2.59331e-01
8.04490 -11.99396 19.94322 -1.29569e-01 1.47375e-01 1.69322e-01 1.47375e-01 1.69322e-01 -1.29569e-01 2.59186e-01
12.05290 -11.95386 19.94322 -1.45657e-01 1.47637e-01 1.67473e-01 1.47637e-01 1.67473e-01 -1.45657e-01 2.66571e-01
16.04540 -11.92646 19.94322 -1.28466e-01 1.43503e-01 1.69008e-01 1.43503e-01 1.69008e-01 -1.28466e-01 2.56243e-01
20.05800 -11.89116 19.94322 -1.36817e-01 1.42892e-01 1.66457e-01 1.42892e-01 1.66457e-01 -1.36817e-01 2.58544e-01
24.04540 -11.87606 19.94322 -1.50188e-01 1.40966e-01 1.57731e-01 1.40966e-01 1.57731e-01 -1.50188e-01 2.59435e-01
28.04960 -11.84456 19.94322 -1.47858e-01 1.42927e-01 1.68639e-01 1.42927e-01 1.68639e-01 -1.47858e-01 2.65950e-01
32.06570 -11.82816 19.94322 -1.51960e-01 1.46350e-01 1.59073e-01 1.46350e-01 1.59073e-01 -1.51960e-01 2.64224e-01
36.07430 -11.79476 19.94322 -1.53055e-01 1.51354e-01 1.54559e-01 1.51354e-01 1.54559e-01 -1.53055e-01 2.64995e-01
40.08800 -11.76436 19.94322 -1.35128e-01 1.55617e-01 1.54953e-01 1.55617e-01 1.54953e-01 -1.35128e-01 2.57850e-01
44.07210 -11.71526 19.94322 -1.42194e-01 1.44941e-01 1.49565e-01 1.44941e-01 1.49565e-01 -1.42194e-01 2.52184e-01
48.07650 -11.85266 19.94322 -1.42961e-01 1.41811e-01 -1.38115e-01 1.41811e-01 -1.38115e-01 -1.42961e-01 2.44180e-01
-43.91690 -7.88096 19.94322 -1.49071e-01 1.56699e-01 -1.63751e-01 1.56699e-01 -1.63751e-01 -1.49071e-01 2.71277e-01
-39.91790 -7.90816 19.94322 -1.54581e-01 1.48134e-01 -1.70221e-01 1.48134e-01 -1.70221e-01 -1.54581e-01 2.73521e-01
-35.93450 -7.94046 19.94322 -1.45236e-01 1.37363e-01 -1.73031e-01 1.37363e-01 -1.73031e-01 -1.45236e-01 2.64389e-01
-31.93560 -7.94806 19.94322 -1.50582e-01 1.41769e-01 -1.66535e-01 1.41769e-01 -1.66535e-01 -1.50582e-01 2.65532e-01
-27.92740 -7.97866 19.94322 -1.39968e-01 1.34179e-01 -1.68049e-01 1.34179e-01 -1.68049e-01 -1.39968e-01 2.56585e-01
-23.93430 -8.01646 19.94322 -1.46248e-01 1.26933e-01 -1.75540e-01 1.26933e-01 -1.75540e-01 -1.46248e-01 2.61371e-01
-19.92760 -8.03926 19.94322 -1.44402e-01 1.29828e-01 -1.70631e-01 1.29828e-01 -1.70631e-01 -1.44402e-01 2.58500e-01
-15.92610 -8.05936 19.94322 -1.48756e-01 1.31819e-01 -1.64289e-01 1.31819e-01 -1.64289e-01 -1.48756e-01 2.57867e-01
-11.94630 -8.09366 19.94322 -1.51667e-01 1.33265e-01 -1.63002e-01 1.33265e-01 -1.63002e-01 -1.51667e-01 2.59484e-01
-7.93660 -8.11826 19.94322 -1.28105e-01 1.54968e-01 -1.59217e-01 1.54968e-01 -1.59217e-01 -1.28105e-01 2.56468e-01
-3.95140 -8.15206 19.94322 -1.22684e-01 1.54140e-01 -1.55702e-01 1.54140e-01 -1.55702e-01 -1.22684e-01 2.51105e-01
0.04073 -8.00076 19.94322 -1.44467e-01 1.45862e-01 1.39522e-01 1.45862e-01 1.39522e-01 -1.44467e-01 2.48219e-01
4.03765 -7.99806 19.94322 -1.37477e-01 1.46786e-01 1.49981e-01 1.46786e-01 1.49981e-01 -1.37477e-01 2.50879e-01
8.04715 -7.96796 19.94322 -1.48889e-01 1.50265e-01 1.63438e-01 1.50265e-01 1.63438e-01 -1.48889e-01 2.67319e-01
12.04720 -7.93266 19.94322 -1.57730e-01 1.42639e-01 1.65678e-01 1.42639e-01 1.65678e-01 -1.57730e-01 2.69581e-01
16.04580 -7.88796 19.94322 -1.40055e-01 1.40826e-01 1.70920e-01 1.40826e-01 1.70920e-01 -1.40055e-01 2.62033e-01
20.04010 -7.85466 19.94322 -1.63055e-01 1.34282e-01 1.70967e-01 1.34282e-01 1.70967e-01 -1.63055e-01 2.71750e-01
24.03800 -7.84046 19.94322 -1.50175e-01 1.33311e-01 1.66089e-01 1.33311e-01 1.66089e-01 -1.50175e-01 2.60595e-01
28.06030 -7.82676 19.94322 -1.38887e-01 1.45462e-01 1.68162e-01 1.45462e-01 1.68162e-01 -1.38887e-01 2.62159e-01
32.08130 -7.81186 19.94322 -1.56086e-01 1.50903e-01 1.53989e-01 1.50903e-01 1.53989e-01 -1.56086e-01 2.66171e-01
36.07590 -7.78906 19.94322 -1.56146e-01 1.47964e-01 1.61025e-01 1.47964e-01 1.61025e-01 -1.56146e-01 2.68708e-01
40.06600 -7.73786 19.94322 -1.37236e-01 1.40044e-01 1.72368e-01 1.40044e-01 1.72368e-01 -1.37236e-01 2.61068e-01
44.06220 -7.70696 19.94322 -1.49067e-01 1.37526e-01 1.47508e-01 1.37526e-01 1.47508e-01 -1.49067e-01 2.50785e-01
48.08190 -7.85056 19.94322 -1.52407e-01 1.47153e-01 -1.31530e-01 1.47153e-01 -1.31530e-01 -1.52407e-01 2.49363e-01
-43.94010 -3.86746 19.94322 -1.37415e-01 1.39967e-01 -1.71892e-01 1.39967e-01 -1.71892e-01 -1.37415e-01 2.60807e-01
-39.93760 -3.87276 19.94322 -1.37153e-01 1.46620e-01 -1.51616e-01 1.46620e-01 -1.51616e-01 -1.37153e-01 2.51587e-01
-35.93120 -3.90446 19.94322 -1.35363e-01 1.55747e-01 -1.65745e-01 1.55747e-01 -1.65745e-01 -1.35363e-01 2.64673e-01
-31.92280 -3.92316 19.94322 -1.32111e-01 1.59441e-01 -1.58796e-01 1.59441e-01 -1.58796e-01 -1.32111e-01 2.60942e-01
-27.91740 -3.96196 19.94322 -1.43217e-01 1.51038e-01 -1.69641e-01 1.51038e-01 -1.69641e-01 -1.43217e-01 2.68518e-01
-23.92200 -3.97936 19.94322 -1.52957e-01 1.39888e-01 -1.66232e-01 1.39888e-01 -1.66232e-01 -1.52957e-01 2.65702e-01
-19.92590 -4.01096 19.94322 -1.53317e-01 1.25875e-01 -1.69966e-01 1.25875e-01 -1.69966e-01 -1.53317e-01 2.61226e-01
-15.92960 -4.03706 19.94322 -1.48765e-01 1.29747e-01 -1.63658e-01 1.29747e-01 -1.63658e-01 -1.48765e-01 2.56416e-01
-11.93250 -4.06506 19.94322 -1.64439e-01 1.30874e-01 -1.60604e-01 1.30874e-01 -1.60604e-01 -1.64439e-01 2.64503e-01
-7.94460 -4.09336 19.94322 -1.45274e-01 1.33318e-01 -1.65863e-01 1.33318e-01 -1.65863e-01 -1.45274e-01 2.57660e-01
-3.94220 -4.11776 19.94322 -1.35922e-01 1.42923e-01 -1.51099e-01 1.42923e-01 -1.51099e-01 -1.35922e-01 2.48460e-01
0.06349 -3.97016 19.94322 -1.48791e-01 1.45582e-01 1.41719e-01 1.45582e-01 1.41719e-01 -1.48791e-01 2.51828e-01
4.05569 -3.94986 19.94322 -1.40098e-01 1.42658e-01 1.61278e-01 1.42658e-01 1.61278e-01 -1.40098e-01 2.56884e-01
8.05419 -3.93956 19.94322 -1.50632e-01 1.45344e-01 1.64700e-01 1.45344e-01 1.64700e-01 -1.50632e-01 2.66348e-01
12.05590 -3.89636 19.94322 -1.45175e-01 1.43417e-01 1.77647e-01 1.43417e-01 1.77647e-01 -1.45175e-01 2.70560e-01
16.04280 -3.85966 19.94322 -1.43995e-01 1.44419e-01 1.69574e-01 1.44419e-01 1.69574e-01 -1.43995e-01 2.65230e-01
20.05520 -3.85246 19.94322 -1.55147e-01 1.53351e-01 1.63234e-01 1.53351e-01 1.63234e-01 -1.55147e-01 2.72456e-01
24.05880 -3.83096 19.94322 -1.60342e-01 1.40931e-01 1.64108e-01 1.40931e-01 1.64108e-01 -1.60342e-01 2.69263e-01
28.06510 -3.81676 19.94322 -1.50220e-01 1.42436e-01 1.66328e-01 1.42436e-01 1.66328e-01 -1.50220e-01 2.65554e-01
32.08000 -3.79986 19.94322 -1.54315e-01 1.49612e-01 1.58602e-01 1.49612e-01 1.58602e-01 -1.54315e-01 2.67117e-01
36.06900 -3.75386 19.94322 -1.48878e-01 1.29701e-01 1.81001e-01 1.29701e-01 1.81001e-01 -1.48878e-01 2.67859e-01
40.05610 -3.70776 19.94322 -1.34452e-01 1.24119e-01 1.85543e-01 1.24119e-01 1.85543e-01 -1.34452e-01 2.60593e-01
44.05460 -3.67566 19.94322 -1.53010e-01 1.24763e-01 1.60891e-01 1.24763e-01 1.60891e-01 -1.53010e-01 2.54684e-01
48.05300 -3.84896 19.94322 -1.53175e-01 1.30517e-01 -1.41630e-01 1.30517e-01 -1.41630e-01 -1.53175e-01 2.46081e-01
-43.93800 0.16452 19.94322 -1.31940e-01 1.43120e-01 -1.63942e-01 1.43120e-01 -1.63942e-01 -1.31940e-01 2.54497e-01
-39.94250 0.14280 19.94322 -1.34365e-01 1.46191e-01 -1.57613e-01 1.46191e-01 -1.57613e-01 -1.34365e-01 2.53511e-01
-35.93760 0.10850 19.94322 -1.34669e-01 1.55867e-01 -1.66109e-01 1.55867e-01 -1.66109e-01 -1.34669e-01 2.64618e-01
-31.93940 0.07274 19.94322 -1.34648e-01 1.53003e-01 -1.68645e-01 1.53003e-01 -1.68645e-01 -1.34648e-01 2.64540e-01
-27.92420 0.05444 19.94322 -1.38356e-01 1.56334e-01 -1.66659e-01 1.56334e-01 -1.66659e-01 -1.38356e-01 2.67129e-01
-23.92160 0.02934 19.94322 -1.46657e-01 1.54572e-01 -1.66000e-01 1.54572e-01 -1.66000e-01 -1.46657e-01 2.70105e-01
-19.91380 0.01404 19.94322 -1.51576e-01 1.56508e-01 -1.62319e-01 1.56508e-01 -1.62319e-01 -1.51576e-01 2.71694e-01
-15.92240 -0.02056 19.94322 -1.56387e-01 1.50112e-01 -1.65594e-01 1.50112e-01 -1.65594e-01 -1.56387e-01 2.72785e-01
-11.92010 -0.02566 19.94322 -1.53787e-01 1.42785e-01 -1.51225e-01 1.42785e-01 -1.51225e-01 -1.53787e-01 2.58664e-01
-7.94290 -0.06306 19.94322 -1.57457e-01 1.23824e-01 -1.61469e-01 1.23824e-01 -1.61469e-01 -1.57457e-01 2.57288e-01
-3.93600 -0.10246 19.94322 -1.49178e-01 1.28665e-01 -1.56781e-01 1.28665e-01 -1.56781e-01 -1.49178e-01 2.51771e-01
0.05559 0.05864 19.94322 -1.59275e-01 1.23600e-01 1.46260e-01 1.23600e-01 1.46260e-01 -1.59275e-01 2.49073e-01
4.03522 0.06644 19.94322 -1.38148e-01 1.14803e-01 1.59237e-01 1.14803e-01 1.59237e-01 -1.38148e-01 2.40044e-01
8.03024 0.08964 19.94322 -1.47954e-01 1.19037e-01 1.71391e-01 1.19037e-01 1.71391e-01 -1.47954e-01 2.55803e-01
12.03250 0.12662 19.94322 -1.48354e-01 1.25842e-01 1.70814e-01 1.25842e-01 1.70814e-01 -1.48354e-01 2.58887e-01
16.02820 0.13491 19.94322 -1.52347e-01 1.38645e-01 1.56579e-01 1.38645e-01 1.56579e-01 -1.52347e-01 2.58746e-01
20.05310 0.16721 19.94322 -1.39303e-01 1.52992e-01 1.71001e-01 1.52992e-01 1.71001e-01 -1.39303e-01 2.68427e-01
24.07660 0.18491 19.94322 -1.46608e-01 1.58940e-01 1.65509e-01 1.58940e-01 1.65509e-01 -1.46608e-01 2.72303e-01
28.09870 0.19314 19.94322 -1.36599e-01 1.65495e-01 1.57644e-01 1.65495e-01 1.57644e-01 -1.36599e-01 2.66269e-01
32.08330 0.23624 19.94322 -1.48263e-01 1.38453e-01 1.74451e-01 1.38453e-01 1.74451e-01 -1.48263e-01 2.67553e-01
36.06740 0.28796 19.94322 -1.48800e-01 1.18400e-01 1.88867e-01 1.18400e-01 1.88867e-01 -1.48800e-01 2.68013e-01
40.04420 0.32433 19.94322 -1.37860e-01 1.20197e-01 1.82838e-01 1.20197e-01 1.82838e-01 -1.37860e-01 2.58616e-01
44.05500 0.34607 19.94322 -1.27851e-01 1.34367e-01 1.54995e-01 1.34367e-01 1.54995e-01 -1.27851e-01 2.41710e-01
48.05270 0.18352 19.94322 -1.45362e-01 1.39000e-01 -1.38089e-01 1.39000e-01 -1.38089e-01 -1.45362e-01 2.43967e-01
-43.93450 4.18165 19.94322 -1.55269e-01 1.42032e-01 -1.55776e-01 1.42032e-01 -1.55776e-01 -1.55269e-01 2.61817e-01
-39.93860 4.17263 19.94322 -1.34026e-01 1.48462e-01 -1.55341e-01 1.48462e-01 -1.55341e-01 -1.34026e-01 2.53248e-01
-35.94050 4.14380 19.94322 -1.28981e-01 1.56401e-01 -1.64314e-01 1.56401e-01 -1.64314e-01 -1.28981e-01 2.60953e-01
-31.93150 4.11582 19.94322 -1.17772e-01 1.54898e-01 -1.69685e-01 1.54898e-01 -1.69685e-01 -1.17772e-01 2.58179e-01
-27.91860 4.08345 19.94322 -1.30422e-01 1.67630e-01 -1.57987e-01 1.67630e-01 -1.57987e-01 -1.30422e-01 2.64707e-01
-23.90670 4.05768 19.94322 -1.46222e-01 1.66045e-01 -1.57538e-01 1.66045e-01 -1.57538e-01 -1.46222e-01 2.71607e-01
-19.91130 4.03149 19.94322 -1.36884e-01 1.58191e-01 -1.57034e-01 1.58191e-01 -1.57034e-01 -1.36884e-01 2.61575e-01
-15.92320 3.99554 19.94322 -1.38135e-01 1.52983e-01 -1.67171e-01 1.52983e-01 -1.67171e-01 -1.38135e-01 2.65388e-01
-11.94390 3.97971 19.94322 -1.43606e-01 1.46360e-01 -1.53587e-01 1.46360e-01 -1.53587e-01 -1.43606e-01 2.56189e-01
-7.93230 3.95669 19.94322 -1.39909e-01 1.49660e-01 -1.52444e-01 1.49660e-01 -1.52444e-01 -1.39909e-01 2.55366e-01
-3.93730 3.93165 19.94322 -1.46722e-01 1.39145e-01 -1.42124e-01 1.39145e-01 -1.42124e-01 -1.46722e-01 2.47160e-01
0.05755 4.07783 19.94322 -1.50665e-01 1.37454e-01 1.30696e-01 1.37454e-01 1.30696e-01 -1.50665e-01 2.42229e-01
4.04629 4.11323 19.94322 -1.44584e-01 1.38018e-01 1.71955e-01 1.38018e-01 1.71955e-01 -1.44584e-01 2.63671e-01
8.04013 4.12243 19.94322 -1.50991e-01 1.41195e-01 1.73005e-01 1.41195e-01 1.73005e-01 -1.50991e-01 2.69564e-01
12.04740 4.12261 19.94322 -1.60113e-01 1.39196e-01 1.52958e-01 1.39196e-01 1.52958e-01 -1.60113e-01 2.61549e-01
16.02550 4.15495 19.94322 -1.44516e-01 1.25126e-01 1.60610e-01 1.25126e-01 1.60610e-01 -1.44516e-01 2.49674e-01
20.05230 4.17348 19.94322 -1.52082e-01 1.50170e-01 1.56697e-01 1.50170e-01 1.56697e-01 -1.52082e-01 2.65017e-01
24.06670 4.21091 19.94322 -1.45331e-01 1.50600e-01 1.65366e-01 1.50600e-01 1.65366e-01 -1.45331e-01 2.66735e-01
28.08770 4.22526 19.94322 -1.35687e-01 1.54824e-01 1.67349e-01 1.54824e-01 1.67349e-01 -1.35687e-01 2.65306e-01
32.08250 4.26944 19.94322 -1.42278e-01 1.51340e-01 1.82401e-01 1.51340e-01 1.82401e-01 -1.42278e-01 2.76436e-01
36.07860 4.31526 19.94322 -1.31535e-01 1.46364e-01 1.79294e-01 1.46364e-01 1.79294e-01 -1.31535e-01 2.66215e-01
40.07360 4.35043 19.94322 -1.35563e-01 1.51700e-01 1.69691e-01 1.51700e-01 1.69691e-01 -1.35563e-01 2.64925e-01
44.06840 4.36195 19.94322 -1.48558e-01 1.58487e-01 1.42545e-01 1.58487e-01 1.42545e-01 -1.48558e-01 2.59821e-01
48.05650 4.19368 19.94322 -1.55540e-01 1.48166e-01 -1.41956e-01 1.48166e-01 -1.41956e-01 -1.55540e-01 2.57483e-01
-43.96370 8.19872 19.94322 -1.41270e-01 1.30491e-01 -1.46386e-01 1.30491e-01 -1.46386e-01 -1.41270e-01 2.41689e-01
-39.96290 8.18798 19.94322 -1.50333e-01 1.36356e-01 -1.48463e-01 1.36356e-01 -1.48463e-01 -1.50333e-01 2.51464e-01
-35.94850 8.15417 19.94322 -1.45875e-01 1.47499e-01 -1.64995e-01 1.47499e-01 -1.64995e-01 -1.45875e-01 2.65063e-01
-31.93200 8.13067 19.94322 -1.38126e-01 1.49694e-01 -1.67729e-01 1.49694e-01 -1.67729e-01 -1.38126e-01 2.63856e-01
-27.93250 8.08225 19.94322 -1.24408e-01 1.49357e-01 -1.64235e-01 1.49357e-01 -1.64235e-01 -1.24408e-01 2.54475e-01
-23.91570 8.07124 19.94322 -1.34088e-01 1.61063e-01 -1.48220e-01 1.61063e-01 -1.48220e-01 -1.34088e-01 2.56690e-01
-19.92880 8.05563 19.94322 -1.37469e-01 1.53518e-01 -1.52504e-01 1.53518e-01 -1.52504e-01 -1.37469e-01 2.56365e-01
-15.93020 8.04097 19.94322 -1.33527e-01 1.49124e-01 -1.58615e-01 1.49124e-01 -1.58615e-01 -1.33527e-01 2.55394e-01
-11.93520 8.00331 19.94322 -1.32144e-01 1.51054e-01 -1.63581e-01 1.51054e-01 -1.63581e-01 -1.32144e-01 2.58917e-01
-7.94100 7.95984 19.94322 -1.36490e-01 1.55365e-01 -1.58138e-01 1.55365e-01 -1.58138e-01 -1.36490e-01 2.60337e-01
-3.93560 7.93625 19.94322 -1.43401e-01 1.51343e-01 -1.34792e-01 1.51343e-01 -1.34792e-01 -1.43401e-01 2.48269e-01
0.04700 8.09476 19.94322 -1.50944e-01 1.38555e-01 1.35728e-01 1.38555e-01 1.35728e-01 -1.50944e-01 2.45771e-01
4.04182 8.12835 19.94322 -1.54876e-01 1.34476e-01 1.70640e-01 1.34476e-01 1.70640e-01 -1.54876e-01 2.66812e-01
8.04503 8.13422 19.94322 -1.51080e-01 1.33592e-01 1.74068e-01 1.33592e-01 1.74068e-01 -1.51080e-01 2.66405e-01
12.03700 8.14033 19.94322 -1.37654e-01 1.35050e-01 1.56431e-01 1.35050e-01 1.56431e-01 -1.37654e-01 2.48310e-01
16.03940 8.16526 19.94322 -1.42927e-01 1.37416e-01 1.55680e-01 1.37416e-01 1.55680e-01 -1.42927e-01 2.52087e-01
20.06030 8.17936 19.94322 -1.59488e-01 1.44722e-01 1.48646e-01 1.44722e-01 1.48646e-01 -1.59488e-01 2.61680e-01
24.07110 8.21783 19.94322 -1.45000e-01 1.44511e-01 1.68138e-01 1.44511e-01 1.68138e-01 -1.45000e-01 2.64913e-01
28.07660 8.25059 19.94322 -1.53964e-01 1.43280e-01 1.69716e-01 1.43280e-01 1.69716e-01 -1.53964e-01 2.70254e-01
32.06770 8.30516 19.94322 -1.33971e-01 1.34883e-01 1.80426e-01 1.34883e-01 1.80426e-01 -1.33971e-01 2.62097e-01
36.05820 8.34025 19.94322 -1.51774e-01 1.29573e-01 1.73108e-01 1.29573e-01 1.73108e-01 -1.51774e-01 2.64180e-01
40.05870 8.37633 19.94322 -1.58598e-01 1.31459e-01 1.60717e-01 1.31459e-01 1.60717e-01 -1.58598e-01 2.61275e-01
44.05860 8.38404 19.94322 -1.66501e-01 1.28474e-01 1.34239e-01 1.28474e-01 1.34239e-01 -1.66501e-01 2.49496e-01
48.05200 8.21099 19.94322 -1.65020e-01 1.30316e-01 -1.48097e-01 1.30316e-01 -1.48097e-01 -1.65020e-01 2.57190e-01
-43.95710 12.20830 19.94322 -1.51173e-01 1.32115e-01 -1.52399e-01 1.32115e-01 -1.52399e-01 -1.51173e-01 2.52058e-01
-39.94070 12.18390 19.94322 -1.42794e-01 1.48916e-01 -1.53415e-01 1.48916e-01 -1.53415e-01 -1.42794e-01 2.57103e-01
-35.92590 12.16930 19.94322 -1.43132e-01 1.57304e-01 -1.59717e-01 1.57304e-01 -1.59717e-01 -1.43132e-01 2.65971e-01
-31.91420 12.13910 19.94322 -1.31833e-01 1.55116e-01 -1.61096e-01 1.55116e-01 -1.61096e-01 -1.31833e-01 2.59601e-01
-27.92440 12.09290 19.94322 -1.21744e-01 1.50704e-01 -1.74161e-01 1.50704e-01 -1.74161e-01 -1.21744e-01 2.60510e-01
-23.92850 12.07880 19.94322 -1.36691e-01 1.51561e-01 -1.61201e-01 1.51561e-01 -1.61201e-01 -1.36691e-01 2.60079e-01
-19.94440 12.05850 19.94322 -1.35477e-01 1.51156e-01 -1.61375e-01 1.51156e-01 -1.61375e-01 -1.35477e-01 2.59315e-01
-15.95200 12.05810 19.94322 -1.43916e-01 1.42123e-01 -1.49435e-01 1.42123e-01 -1.49435e-01 -1.43916e-01 2.51479e-01
-11.95380 12.01920 19.94322 -1.43270e-01 1.40664e-01 -1.65099e-01 1.40664e-01 -1.65099e-01 -1.43270e-01 2.59943e-01
-7.96690 11.98210 19.94322 -1.34559e-01 1.36992e-01 -1.59274e-01 1.36992e-01 -1.59274e-01 -1.34559e-01 2.49481e-01
-3.97340 11.94960 19.94322 -1.37408e-01 1.28942e-01 -1.40831e-01 1.28942e-01 -1.40831e-01 -1.37408e-01 2.35245e-01
0.01271 12.11290 19.94322 -1.49103e-01 1.26737e-01 1.39187e-01 1.26737e-01 1.39187e-01 -1.49103e-01 2.40140e-01
4.04181 12.13310 19.94322 -1.48717e-01 1.44514e-01 1.64916e-01 1.44514e-01 1.64916e-01 -1.48717e-01 2.64949e-01
8.04309 12.16970 19.94322 -1.56348e-01 1.37636e-01 1.75305e-01 1.37636e-01 1.75305e-01 -1.56348e-01 2.72250e-01
12.04410 12.15860 19.94322 -1.43355e-01 1.39596e-01 1.47012e-01 1.39596e-01 1.47012e-01 -1.43355e-01 2.48295e-01
16.07120 12.16270 19.94322 -1.46499e-01 1.49528e-01 1.47619e-01 1.49528e-01 1.47619e-01 -1.46499e-01 2.56148e-01
20.07350 12.19470 19.94322 -1.58480e-01 1.37974e-01 1.58267e-01 1.37974e-01 1.58267e-01 -1.58480e-01 2.63061e-01
24.06400 12.24440 19.94322 -1.45630e-01 1.36044e-01 1.77437e-01 1.36044e-01 1.77437e-01 -1.45630e-01 2.66833e-01
28.07250 12.27220 19.94322 -1.52771e-01 1.44160e-01 1.70689e-01 1.44160e-01 1.70689e-01 -1.52771e-01 2.70658e-01
32.06440 12.32270 19.94322 -1.42140e-01 1.45155e-01 1.68825e-01 1.45155e-01 1.68825e-01 -1.42140e-01 2.64151e-01
36.07030 12.36210 19.94322 -1.54042e-01 1.46091e-01 1.65197e-01 1.46091e-01 1.65197e-01 -1.54042e-01 2.69001e-01
40.06570 12.38770 19.94322 -1.41860e-01 1.43090e-01 1.59435e-01 1.43090e-01 1.59435e-01 -1.41860e-01 2.56941e-01
44.06050 12.38520 19.94322 -1.61377e-01 1.32049e-01 1.27644e-01 1.32049e-01 1.27644e-01 -1.61377e-01 2.44484e-01
48.04930 12.22380 19.94322 -1.67651e-01 1.25401e-01 -1.56726e-01 1.25401e-01 -1.56726e-01 -1.67651e-01 2.61525e-01
-43.95970 16.21880 19.94322 -1.47266e-01 1.23036e-01 -1.68059e-01 1.23036e-01 -1.68059e-01 -1.47266e-01 2.55086e-01
-39.96810 16.19380 19.94322 -1.55761e-01 1.25932e-01 -1.66931e-01 1.25932e-01 -1.66931e-01 -1.55761e-01 2.60742e-01
-35.96190 16.19810 19.94322 -1.53627e-01 1.28894e-01 -1.53509e-01 1.28894e-01 -1.53509e-01 -1.53627e-01 2.52546e-01
-31.95160 16.16070 19.94322 -1.37113e-01 1.32506e-01 -1.65705e-01 1.32506e-01 -1.65705e-01 -1.37113e-01 2.52618e-01
-27.94250 16.13190 19.94322 -1.39100e-01 1.44579e-01 -1.77392e-01 1.44579e-01 -1.77392e-01 -1.39100e-01 2.67805e-01
-23.93610 16.10820 19.94322 -1.35113e-01 1.48602e-01 -1.63404e-01 1.48602e-01 -1.63404e-01 -1.35113e-01 2.58919e-01
-19.95190 16.07500 19.94322 -1.39476e-01 1.45348e-01 -1.64278e-01 1.45348e-01 -1.64278e-01 -1.39476e-01 2.59936e-01
-15.96150 16.06080 19.94322 -1.53352e-01 1.43595e-01 -1.59618e-01 1.43595e-01 -1.59618e-01 -1.53352e-01 2.63845e-01
-11.96720 16.03300 19.94322 -1.52278e-01 1.36483e-01 -1.64054e-01 1.36483e-01 -1.64054e-01 -1.52278e-01 2.62163e-01
-7.96880 15.99540 19.94322 -1.47537e-01 1.32542e-01 -1.52837e-01 1.32542e-01 -1.52837e-01 -1.47537e-01 2.50387e-01
-3.98150 15.94610 19.94322 -1.55919e-01 1.23443e-01 -1.47777e-01 1.23443e-01 -1.47777e-01 -1.55919e-01 2.47764e-01
0.01958 16.10390 19.94322 -1.75791e-01 1.25197e-01 1.24392e-01 1.25197e-01 1.24392e-01 -1.75791e-01 2.49099e-01
4.02293 16.14360 19.94322 -1.50419e-01 1.27062e-01 1.54114e-01 1.27062e-01 1.54114e-01 -1.50419e-01 2.50044e-01
8.04454 16.15810 19.94322 -1.62722e-01 1.34828e-01 1.58010e-01 1.34828e-01 1.58010e-01 -1.62722e-01 2.63864e-01
12.05930 16.16000 19.94322 -1.61746e-01 1.34445e-01 1.44722e-01 1.34445e-01 1.44722e-01 -1.61746e-01 2.55307e-01
16.06520 16.18510 19.94322 -1.48178e-01 1.32338e-01 1.59060e-01 1.32338e-01 1.59060e-01 -1.48178e-01 2.54500e-01
20.05560 16.22700 19.94322 -1.58860e-01 1.35002e-01 1.63101e-01 1.35002e-01 1.63101e-01 -1.58860e-01 2.64696e-01
24.05340 16.26870 19.94322 -1.39348e-01 1.45332e-01 1.77226e-01 1.45332e-01 1.77226e-01 -1.39348e-01 2.68232e-01
28.06980 16.31220 19.94322 -1.43536e-01 1.50299e-01 1.76092e-01 1.50299e-01 1.76092e-01 -1.43536e-01 2.72398e-01
32.06350 16.32890 19.94322 -1.46484e-01 1.47359e-01 1.55376e-01 1.47359e-01 1.55376e-01 -1.46484e-01 2.59449e-01
36.09200 16.36380 19.94322 -1.44913e-01 1.53742e-01 1.54527e-01 1.53742e-01 1.54527e-01 -1.44913e-01 2.61754e-01
40.09230 16.40890 19.94322 -1.39979e-01 1.45583e-01 1.65448e-01 1.45583e-01 1.65448e-01 -1.39979e-01 2.61077e-01
44.07180 16.41870 19.94322 -1.78241e-01 1.35070e-01 1.38092e-01 1.35070e-01 1.38092e-01 -1.78241e-01 2.62837e-01
48.05890 16.27060 19.94322 -1.56644e-01 1.28826e-01 -1.37521e-01 1.28826e-01 -1.37521e-01 -1.56644e-01 2.45041e-01
-43.95450 20.24870 19.94322 -1.52065e-01 1.35780e-01 -1.62249e-01 1.35780e-01 -1.62249e-01 -1.52065e-01 2.60547e-01
-39.95570 20.22370 19.94322 -1.59258e-01 1.39476e-01 -1.70311e-01 1.39476e-01 -1.70311e-01 -1.59258e-01 2.71703e-01
-35.94570 20.20100 19.94322 -1.34490e-01 1.51961e-01 -1.60197e-01 1.51961e-01 -1.60197e-01 -1.34490e-01 2.58539e-01
-31.92730 20.19500 19.94322 -1.21405e-01 1.52646e-01 -1.65001e-01 1.52646e-01 -1.65001e-01 -1.21405e-01 2.55470e-01
-27.93650 20.17150 19.94322 -1.42140e-01 1.34481e-01 -1.75606e-01 1.34481e-01 -1.75606e-01 -1.42140e-01 2.62919e-01
-23.94620 20.13050 19.94322 -1.29104e-01 1.31074e-01 -1.70530e-01 1.31074e-01 -1.70530e-01 -1.29104e-01 2.50856e-01
-19.95090 20.08880 19.94322 -1.32904e-01 1.39735e-01 -1.73020e-01 1.39735e-01 -1.73020e-01 -1.32904e-01 2.59086e-01
-15.96440 20.06440 19.94322 -1.50176e-01 1.39885e-01 -1.69698e-01 1.39885e-01 -1.69698e-01 -1.50176e-01 2.66305e-01
-11.96060 20.03350 19.94322 -1.40150e-01 1.50702e-01 -1.64494e-01 1.50702e-01 -1.64494e-01 -1.40150e-01 2.63460e-01
-7.96590 19.99400 19.94322 -1.37997e-01 1.52595e-01 -1.59340e-01 1.52595e-01 -1.59340e-01 -1.37997e-01 2.60226e-01
-3.97480 19.96170 19.94322 -1.43967e-01 1.46733e-01 -1.46942e-01 1.46733e-01 -1.46942e-01 -1.43967e-01 2.52684e-01
0.01883 20.10940 19.94322 -1.70878e-01 1.36657e-01 1.27018e-01 1.36657e-01 1.27018e-01 -1.70878e-01 2.52998e-01
4.02668 20.14830 19.94322 -1.61614e-01 1.40745e-01 1.48965e-01 1.40745e-01 1.48965e-01 -1.61614e-01 2.60996e-01
8.04466 20.15650 19.94322 -1.59580e-01 1.42562e-01 1.60142e-01 1.42562e-01 1.60142e-01 -1.59580e-01 2.67273e-01
12.07200 20.18390 19.94322 -1.64119e-01 1.46776e-01 1.57350e-01 1.46776e-01 1.57350e-01 -1.64119e-01 2.70624e-01
16.07250 20.20630 19.94322 -1.37468e-01 1.48333e-01 1.62494e-01 1.48333e-01 1.62494e-01 -1.37468e-01 2.59431e-01
20.06740 20.25180 19.94322 -1.44079e-01 1.53595e-01 1.71975e-01 1.53595e-01 1.71975e-01 -1.44079e-01 2.71893e-01
24.05170 20.29650 19.94322 -1.40875e-01 1.44098e-01 1.74848e-01 1.44098e-01 1.74848e-01 -1.40875e-01 2.66799e-01
28.04910 20.32340 19.94322 -1.51475e-01 1.40550e-01 1.72288e-01 1.40550e-01 1.72288e-01 -1.51475e-01 2.69039e-01
32.05930 20.34590 19.94322 -1.41095e-01 1.42673e-01 1.51083e-01 1.42673e-01 1.51083e-01 -1.41095e-01 2.51176e-01
36.08760 20.38430 19.94322 -1.45880e-01 1.39771e-01 1.52162e-01 1.39771e-01 1.52162e-01 -1.45880e-01 2.52924e-01
40.08280 20.42540 19.94322 -1.49172e-01 1.32687e-01 1.69753e-01 1.32687e-01 1.69753e-01 -1.49172e-01 2.62058e-01
44.07740 20.44950 19.94322 -1.59712e-01 1.30588e-01 1.54018e-01 1.30588e-01 1.54018e-01 -1.59712e-01 2.57454e-01
48.07310 20.28660 19.94322 -1.56349e-01 1.36207e-01 -1.38671e-01 1.36207e-01 -1.38671e-01 -1.56349e-01 2.49453e-01
ZONE T="YZ_mid_T1.500_C19.943_TS10000", I=24, J=10, K=1, DATAPACKING=POINT, STRANDID=1, SOLUTIONTIME=10000.000000
-43.95140 -15.92476 19.94322 -1.60655e-01 1.24561e-01 -1.65072e-01 1.24561e-01 -1.65072e-01 -1.60655e-01 2.61867e-01
-39.95520 -15.95596 19.94322 -1.52788e-01 1.38209e-01 -1.54899e-01 1.38209e-01 -1.54899e-01 -1.52788e-01 2.57759e-01
-35.94820 -15.98306 19.94322 -1.45127e-01 1.55596e-01 -1.51015e-01 1.55596e-01 -1.51015e-01 -1.45127e-01 2.60917e-01
-31.94110 -16.00576 19.94322 -1.47093e-01 1.51027e-01 -1.53680e-01 1.51027e-01 -1.53680e-01 -1.47093e-01 2.60889e-01
-27.93310 -16.01956 19.94322 -1.59199e-01 1.35595e-01 -1.57823e-01 1.35595e-01 -1.57823e-01 -1.59199e-01 2.61989e-01
-23.93760 -16.03756 19.94322 -1.42712e-01 1.36667e-01 -1.59493e-01 1.36667e-01 -1.59493e-01 -1.42712e-01 2.53934e-01
-19.95980 -16.06246 19.94322 -1.55904e-01 1.39438e-01 -1.62900e-01 1.39438e-01 -1.62900e-01 -1.55904e-01 2.65114e-01
-15.95920 -16.10686 19.94322 -1.40896e-01 1.40939e-01 -1.55242e-01 1.40939e-01 -1.55242e-01 -1.40896e-01 2.52617e-01
-11.96070 -16.14576 19.94322 -1.62035e-01 1.44547e-01 -1.54712e-01 1.44547e-01 -1.54712e-01 -1.62035e-01 2.66618e-01
-7.96200 -16.17876 19.94322 -1.64115e-01 1.49268e-01 -1.60709e-01 1.49268e-01 -1.60709e-01 -1.64115e-01 2.73938e-01
-3.97370 -16.21216 19.94322 -1.58667e-01 1.47643e-01 -1.40288e-01 1.47643e-01 -1.40288e-01 -1.58667e-01 2.58175e-01
0.02839 -16.07326 19.94322 -1.33060e-01 1.44494e-01 1.53985e-01 1.44494e-01 1.53985e-01 -1.33060e-01 2.49589e-01
4.03896 -16.03846 19.94322 -1.15792e-01 1.61748e-01 1.68937e-01 1.61748e-01 1.68937e-01 -1.15792e-01 2.60979e-01
8.03766 -16.01476 19.94322 -1.35015e-01 1.63630e-01 1.45923e-01 1.63630e-01 1.45923e-01 -1.35015e-01 2.57483e-01
12.04910 -15.98516 19.94322 -1.44886e-01 1.55491e-01 1.52644e-01 1.55491e-01 1.52644e-01 -1.44886e-01 2.61666e-01
16.04590 -15.96516 19.94322 -1.36731e-01 1.51424e-01 1.50390e-01 1.51424e-01 1.50390e-01 -1.36731e-01 2.53459e-01
20.04640 -15.90986 19.94322 -1.35872e-01 1.39972e-01 1.44810e-01 1.39972e-01 1.44810e-01 -1.35872e-01 2.42947e-01
24.04190 -15.87806 19.94322 -1.32469e-01 1.25283e-01 1.66198e-01 1.25283e-01 1.66198e-01 -1.32469e-01 2.46709e-01
28.04850 -15.86176 19.94322 -1.49234e-01 1.17559e-01 1.60979e-01 1.17559e-01 1.60979e-01 -1.49234e-01 2.49008e-01
32.05870 -15.84136 19.94322 -1.43286e-01 1.21414e-01 1.78229e-01 1.21414e-01 1.78229e-01 -1.43286e-01 2.58917e-01