VARIABLES= "X" "Y" "Zsec" "Px" "Py" "Pz" "U" "V" "W" "Pmag"
ZONE T="XY_mid_T1.500_C20.205_TS0", I=10, J=24, K=1, DATAPACKING=POINT, STRANDID=1, SOLUTIONTIME=0.000000
19.93280 48.07310 20.20509 -1.56349e-01 1.36207e-01 -1.38671e-01 -1.56349e-01 1.36207e-01 -1.38671e-01 2.49453e-01
15.91340 48.06060 20.20509 -1.50906e-01 1.22685e-01 -1.64377e-01 -1.50906e-01 1.22685e-01 -1.64377e-01 2.54645e-01
11.91420 48.07340 20.20509 -1.42051e-01 1.46257e-01 -1.54344e-01 -1.42051e-01 1.46257e-01 -1.54344e-01 2.55718e-01
7.91778 48.06370 20.20509 -1.44065e-01 1.43994e-01 -1.52319e-01 -1.44065e-01 1.43994e-01 -1.52319e-01 2.54342e-01
3.91243 48.06840 20.20509 -1.55041e-01 1.29312e-01 -1.50051e-01 -1.55041e-01 1.29312e-01 -1.50051e-01 2.51545e-01
-0.08596 48.08060 20.20509 -1.51289e-01 1.41289e-01 -1.60628e-01 -1.51289e-01 1.41289e-01 -1.60628e-01 2.62015e-01
-4.09016 48.08920 20.20509 -1.47300e-01 1.47263e-01 -1.43423e-01 -1.47300e-01 1.47263e-01 -1.43423e-01 2.52891e-01
-8.08816 48.07790 20.20509 -1.49112e-01 1.38521e-01 -1.36308e-01 -1.49112e-01 1.38521e-01 -1.36308e-01 2.44954e-01
-12.10836 48.07430 20.20509 -1.58754e-01 1.30191e-01 -1.47619e-01 -1.58754e-01 1.30191e-01 -1.47619e-01 2.52871e-01
-16.14096 48.07920 20.20509 -1.60961e-01 1.48113e-01 -1.55247e-01 -1.60961e-01 1.48113e-01 -1.55247e-01 2.68230e-01
19.92950 44.07740 20.20509 -1.59712e-01 1.30588e-01 1.54018e-01 -1.59712e-01 1.30588e-01 1.54018e-01 2.57454e-01
15.90890 44.07180 20.20509 -1.60179e-01 1.26213e-01 1.63203e-01 -1.60179e-01 1.26213e-01 1.63203e-01 2.61194e-01
11.89480 44.08840 20.20509 -1.63786e-01 1.48417e-01 1.56591e-01 -1.63786e-01 1.48417e-01 1.56591e-01 2.70877e-01
7.89238 44.06970 20.20509 -1.49354e-01 1.44297e-01 1.79041e-01 -1.49354e-01 1.44297e-01 1.79041e-01 2.74197e-01
3.91375 44.07850 20.20509 -1.41842e-01 1.42125e-01 1.47141e-01 -1.41842e-01 1.42125e-01 1.47141e-01 2.48936e-01
-0.08396 44.08200 20.20509 -1.48465e-01 1.44051e-01 1.54542e-01 -1.48465e-01 1.44051e-01 1.54542e-01 2.58217e-01
-4.08106 44.08500 20.20509 -1.41688e-01 1.57158e-01 1.40539e-01 -1.41688e-01 1.57158e-01 1.40539e-01 2.54018e-01
-8.09206 44.08880 20.20509 -1.42862e-01 1.44973e-01 1.51023e-01 -1.42862e-01 1.44973e-01 1.51023e-01 2.53446e-01
-12.09496 44.08470 20.20509 -1.46268e-01 1.38353e-01 1.59464e-01 -1.46268e-01 1.38353e-01 1.59464e-01 2.56836e-01
-16.12486 44.08350 20.20509 -1.55842e-01 1.53022e-01 1.38374e-01 -1.55842e-01 1.53022e-01 1.38374e-01 2.58553e-01
19.93320 40.08280 20.20509 -1.49172e-01 1.32687e-01 1.69753e-01 -1.49172e-01 1.32687e-01 1.69753e-01 2.62058e-01
15.90020 40.07360 20.20509 -1.58302e-01 1.37503e-01 1.58289e-01 -1.58302e-01 1.37503e-01 1.58289e-01 2.62720e-01
11.89530 40.08530 20.20509 -1.53018e-01 1.41267e-01 1.61093e-01 -1.53018e-01 1.41267e-01 1.61093e-01 2.63290e-01
7.89516 40.05770 20.20509 -1.35364e-01 1.22630e-01 1.75603e-01 -1.35364e-01 1.22630e-01 1.75603e-01 2.53373e-01
3.90460 40.07380 20.20509 -1.35888e-01 1.50828e-01 1.61156e-01 -1.35888e-01 1.50828e-01 1.61156e-01 2.59203e-01
-0.07366 40.07900 20.20509 -1.24094e-01 1.50997e-01 1.60940e-01 -1.24094e-01 1.50997e-01 1.60940e-01 2.53182e-01
-4.08686 40.08150 20.20509 -1.26066e-01 1.55748e-01 1.67504e-01 -1.26066e-01 1.55748e-01 1.67504e-01 2.61166e-01
-8.08646 40.07970 20.20509 -1.23629e-01 1.48059e-01 1.72073e-01 -1.23629e-01 1.48059e-01 1.72073e-01 2.58485e-01
-12.10326 40.07440 20.20509 -1.42046e-01 1.44240e-01 1.69317e-01 -1.42046e-01 1.44240e-01 1.69317e-01 2.63913e-01
-16.12886 40.08340 20.20509 -1.49075e-01 1.50928e-01 1.50778e-01 -1.49075e-01 1.50928e-01 1.50778e-01 2.60263e-01
19.93150 36.08760 20.20509 -1.45880e-01 1.39771e-01 1.52162e-01 -1.45880e-01 1.39771e-01 1.52162e-01 2.52924e-01
15.91160 36.07560 20.20509 -1.49520e-01 1.45313e-01 1.54078e-01 -1.49520e-01 1.45313e-01 1.54078e-01 2.59253e-01
11.90690 36.07290 20.20509 -1.44482e-01 1.43028e-01 1.49222e-01 -1.44482e-01 1.43028e-01 1.49222e-01 2.52189e-01
7.90129 36.05340 20.20509 -1.51084e-01 1.32731e-01 1.33807e-01 -1.51084e-01 1.32731e-01 1.33807e-01 2.41554e-01
3.90702 36.05050 20.20509 -1.50427e-01 1.44158e-01 1.53313e-01 -1.50427e-01 1.44158e-01 1.53313e-01 2.58679e-01
-0.09446 36.04880 20.20509 -1.38850e-01 1.45222e-01 1.58913e-01 -1.38850e-01 1.45222e-01 1.58913e-01 2.56168e-01
-4.09266 36.05080 20.20509 -1.21951e-01 1.41881e-01 1.77956e-01 -1.21951e-01 1.41881e-01 1.77956e-01 2.58206e-01
-8.09376 36.06480 20.20509 -1.23900e-01 1.49431e-01 1.60671e-01 -1.23900e-01 1.49431e-01 1.60671e-01 2.51984e-01
-12.10586 36.07240 20.20509 -1.25595e-01 1.54832e-01 1.72761e-01 -1.25595e-01 1.54832e-01 1.72761e-01 2.63806e-01
-16.12346 36.07630 20.20509 -1.29231e-01 1.48500e-01 1.59336e-01 -1.29231e-01 1.48500e-01 1.59336e-01 2.53261e-01
19.94850 32.05930 20.20509 -1.41095e-01 1.42673e-01 1.51083e-01 -1.41095e-01 1.42673e-01 1.51083e-01 2.51176e-01
15.92160 32.06100 20.20509 -1.50490e-01 1.46416e-01 1.56759e-01 -1.50490e-01 1.46416e-01 1.56759e-01 2.62027e-01
11.90960 32.04490 20.20509 -1.47440e-01 1.35967e-01 1.60333e-01 -1.47440e-01 1.35967e-01 1.60333e-01 2.56773e-01
7.91398 32.04640 20.20509 -1.38637e-01 1.45342e-01 1.69426e-01 -1.38637e-01 1.45342e-01 1.69426e-01 2.62772e-01
3.92126 32.04600 20.20509 -1.32545e-01 1.39100e-01 1.74305e-01 -1.32545e-01 1.39100e-01 1.74305e-01 2.59421e-01
-0.07746 32.04800 20.20509 -1.31241e-01 1.37691e-01 1.73272e-01 -1.31241e-01 1.37691e-01 1.73272e-01 2.57306e-01
-4.08636 32.05970 20.20509 -1.29282e-01 1.40241e-01 1.74824e-01 -1.29282e-01 1.40241e-01 1.74824e-01 2.58737e-01
-8.09436 32.04880 20.20509 -1.27094e-01 1.34257e-01 1.76549e-01 -1.27094e-01 1.34257e-01 1.76549e-01 2.55631e-01
-12.10966 32.07050 20.20509 -1.32601e-01 1.64403e-01 1.67709e-01 -1.32601e-01 1.64403e-01 1.67709e-01 2.69699e-01
-16.12646 32.05390 20.20509 -1.31669e-01 1.41286e-01 1.63356e-01 -1.31669e-01 1.41286e-01 1.63356e-01 2.52950e-01
19.93140 28.04910 20.20509 -1.51475e-01 1.40550e-01 1.72288e-01 -1.51475e-01 1.40550e-01 1.72288e-01 2.69039e-01
15.91650 28.04790 20.20509 -1.51158e-01 1.38675e-01 1.61279e-01 -1.51158e-01 1.38675e-01 1.61279e-01 2.60941e-01
11.90380 28.02250 20.20509 -1.40230e-01 1.27149e-01 1.61175e-01 -1.40230e-01 1.27149e-01 1.61175e-01 2.48613e-01
7.89627 28.04470 20.20509 -1.37410e-01 1.39940e-01 1.72813e-01 -1.37410e-01 1.39940e-01 1.72813e-01 2.61398e-01
3.89974 28.04580 20.20509 -1.39887e-01 1.39835e-01 1.61213e-01 -1.39887e-01 1.39835e-01 1.61213e-01 2.55170e-01
-0.09476 28.04850 20.20509 -1.45718e-01 1.33242e-01 1.66058e-01 -1.45718e-01 1.33242e-01 1.66058e-01 2.57997e-01
-4.10306 28.04910 20.20509 -1.44095e-01 1.34862e-01 1.66633e-01 -1.44095e-01 1.34862e-01 1.66633e-01 2.58298e-01
-8.10956 28.04680 20.20509 -1.43323e-01 1.27064e-01 1.75433e-01 -1.43323e-01 1.27064e-01 1.75433e-01 2.59737e-01
-12.12466 28.05720 20.20509 -1.50197e-01 1.50682e-01 1.68190e-01 -1.50197e-01 1.50682e-01 1.68190e-01 2.71205e-01
-16.14056 28.05030 20.20509 -1.52470e-01 1.44358e-01 1.70938e-01 -1.52470e-01 1.44358e-01 1.70938e-01 2.70751e-01
19.93230 24.05170 20.20509 -1.40875e-01 1.44098e-01 1.74848e-01 -1.40875e-01 1.44098e-01 1.74848e-01 2.66799e-01
15.91840 24.05130 20.20509 -1.50643e-01 1.37599e-01 1.76212e-01 -1.50643e-01 1.37599e-01 1.76212e-01 2.69588e-01
11.89100 24.02770 20.20509 -1.55748e-01 1.13710e-01 1.75731e-01 -1.55748e-01 1.13710e-01 1.75731e-01 2.60900e-01
7.87836 24.04090 20.20509 -1.50420e-01 1.31197e-01 1.69874e-01 -1.50420e-01 1.31197e-01 1.69874e-01 2.62100e-01
3.88540 24.04750 20.20509 -1.37951e-01 1.33134e-01 1.69186e-01 -1.37951e-01 1.33134e-01 1.69186e-01 2.55693e-01
-0.09426 24.05100 20.20509 -1.32649e-01 1.30512e-01 1.65035e-01 -1.32649e-01 1.30512e-01 1.65035e-01 2.48729e-01
-4.08246 24.04560 20.20509 -1.35061e-01 1.29151e-01 1.74378e-01 -1.35061e-01 1.29151e-01 1.74378e-01 2.55596e-01
-8.10636 24.05030 20.20509 -1.46079e-01 1.36872e-01 1.83386e-01 -1.46079e-01 1.36872e-01 1.83386e-01 2.71484e-01
-12.11656 24.04250 20.20509 -1.46173e-01 1.30106e-01 1.97938e-01 -1.46173e-01 1.30106e-01 1.97938e-01 2.78341e-01
-16.13586 24.04570 20.20509 -1.44458e-01 1.43468e-01 1.62775e-01 -1.44458e-01 1.43468e-01 1.62775e-01 2.60666e-01
19.91430 20.06740 20.20509 -1.44079e-01 1.53595e-01 1.71975e-01 -1.44079e-01 1.53595e-01 1.71975e-01 2.71893e-01
15.91240 20.06010 20.20509 -1.31463e-01 1.37073e-01 1.75071e-01 -1.31463e-01 1.37073e-01 1.75071e-01 2.58305e-01
11.90480 20.04120 20.20509 -1.40899e-01 1.13891e-01 1.83269e-01 -1.40899e-01 1.13891e-01 1.83269e-01 2.57703e-01
7.89938 20.06090 20.20509 -1.34799e-01 1.37717e-01 1.80046e-01 -1.34799e-01 1.37717e-01 1.80046e-01 2.63729e-01
3.89880 20.04760 20.20509 -1.38527e-01 1.29428e-01 1.70466e-01 -1.38527e-01 1.29428e-01 1.70466e-01 2.54951e-01
-0.09876 20.04830 20.20509 -1.52191e-01 1.28752e-01 1.54613e-01 -1.52191e-01 1.28752e-01 1.54613e-01 2.52278e-01
-4.09826 20.04670 20.20509 -1.59753e-01 1.30190e-01 1.62110e-01 -1.59753e-01 1.30190e-01 1.62110e-01 2.62202e-01
-8.09986 20.05610 20.20509 -1.58206e-01 1.39700e-01 1.66461e-01 -1.58206e-01 1.39700e-01 1.66461e-01 2.68802e-01
-12.12026 20.04610 20.20509 -1.54856e-01 1.25711e-01 1.69764e-01 -1.54856e-01 1.25711e-01 1.69764e-01 2.61923e-01
-16.15776 20.05110 20.20509 -1.56385e-01 1.39790e-01 1.61452e-01 -1.56385e-01 1.39790e-01 1.61452e-01 2.64696e-01
19.92370 16.07250 20.20509 -1.37468e-01 1.48333e-01 1.62494e-01 -1.37468e-01 1.48333e-01 1.62494e-01 2.59431e-01
15.90270 16.05510 20.20509 -1.36467e-01 1.36091e-01 1.74605e-01 -1.36467e-01 1.36091e-01 1.74605e-01 2.60059e-01
11.89660 16.05830 20.20509 -1.49404e-01 1.36572e-01 1.71863e-01 -1.49404e-01 1.36572e-01 1.71863e-01 2.65537e-01
7.89767 16.07090 20.20509 -1.49986e-01 1.44145e-01 1.77346e-01 -1.49986e-01 1.44145e-01 1.77346e-01 2.73359e-01
3.90722 16.06520 20.20509 -1.46212e-01 1.42796e-01 1.73959e-01 -1.46212e-01 1.42796e-01 1.73959e-01 2.68385e-01
-0.09976 16.04840 20.20509 -1.49023e-01 1.28265e-01 1.72363e-01 -1.49023e-01 1.28265e-01 1.72363e-01 2.61474e-01
-4.09126 16.06200 20.20509 -1.47611e-01 1.48678e-01 1.60322e-01 -1.47611e-01 1.48678e-01 1.60322e-01 2.63813e-01
-8.09466 16.06330 20.20509 -1.44550e-01 1.39699e-01 1.60627e-01 -1.44550e-01 1.39699e-01 1.60627e-01 2.57316e-01
-12.12586 16.05400 20.20509 -1.49869e-01 1.28808e-01 1.63434e-01 -1.49869e-01 1.28808e-01 1.63434e-01 2.56443e-01
-16.15036 16.06540 20.20509 -1.41060e-01 1.30365e-01 1.75993e-01 -1.41060e-01 1.30365e-01 1.75993e-01 2.60512e-01
19.90620 12.07200 20.20509 -1.64119e-01 1.46776e-01 1.57350e-01 -1.64119e-01 1.46776e-01 1.57350e-01 2.70624e-01
15.91570 12.05350 20.20509 -1.51764e-01 1.36988e-01 1.59997e-01 -1.51764e-01 1.36988e-01 1.59997e-01 2.59610e-01
11.89440 12.06070 20.20509 -1.57223e-01 1.51117e-01 1.53911e-01 -1.57223e-01 1.51117e-01 1.53911e-01 2.66916e-01
7.91518 12.06920 20.20509 -1.45511e-01 1.55206e-01 1.53903e-01 -1.45511e-01 1.55206e-01 1.53903e-01 2.62581e-01
3.91169 12.04580 20.20509 -1.43488e-01 1.48500e-01 1.56602e-01 -1.43488e-01 1.48500e-01 1.56602e-01 2.59163e-01
-0.08946 12.04090 20.20509 -1.46042e-01 1.30497e-01 1.65993e-01 -1.46042e-01 1.30497e-01 1.65993e-01 2.56732e-01
-4.10216 12.05160 20.20509 -1.50403e-01 1.48871e-01 1.65305e-01 -1.50403e-01 1.48871e-01 1.65305e-01 2.68532e-01
-8.10636 12.06470 20.20509 -1.44824e-01 1.47801e-01 1.58152e-01 -1.44824e-01 1.47801e-01 1.58152e-01 2.60444e-01
-12.13506 12.06450 20.20509 -1.60837e-01 1.40049e-01 1.61058e-01 -1.60837e-01 1.40049e-01 1.61058e-01 2.67249e-01
-16.16946 12.06740 20.20509 -1.72708e-01 1.27142e-01 1.63473e-01 -1.72708e-01 1.27142e-01 1.63473e-01 2.69660e-01
19.91600 8.04466 20.20509 -1.59580e-01 1.42562e-01 1.60142e-01 -1.59580e-01 1.42562e-01 1.60142e-01 2.67273e-01
15.91460 8.03962 20.20509 -1.48490e-01 1.42330e-01 1.54431e-01 -1.48490e-01 1.42330e-01 1.54431e-01 2.57209e-01
11.91690 8.05083 20.20509 -1.42682e-01 1.55934e-01 1.50538e-01 -1.42682e-01 1.55934e-01 1.50538e-01 2.59490e-01
7.93677 8.06593 20.20509 -1.26291e-01 1.63743e-01 1.57540e-01 -1.26291e-01 1.63743e-01 1.57540e-01 2.59961e-01
3.91761 8.03733 20.20509 -1.31136e-01 1.42247e-01 1.55521e-01 -1.31136e-01 1.42247e-01 1.55521e-01 2.48229e-01
-0.08076 8.03882 20.20509 -1.41794e-01 1.37464e-01 1.51920e-01 -1.41794e-01 1.37464e-01 1.51920e-01 2.49162e-01
-4.09716 8.03557 20.20509 -1.46354e-01 1.36645e-01 1.59220e-01 -1.46354e-01 1.36645e-01 1.59220e-01 2.55817e-01
-8.10356 8.05460 20.20509 -1.41213e-01 1.58268e-01 1.43196e-01 -1.41213e-01 1.58268e-01 1.43196e-01 2.55920e-01
-12.12956 8.05920 20.20509 -1.54876e-01 1.51332e-01 1.53263e-01 -1.54876e-01 1.51332e-01 1.53263e-01 2.65288e-01
-16.15806 8.05293 20.20509 -1.66745e-01 1.34793e-01 1.58868e-01 -1.66745e-01 1.34793e-01 1.58868e-01 2.66856e-01
19.91910 4.02668 20.20509 -1.61614e-01 1.40745e-01 1.48965e-01 -1.61614e-01 1.40745e-01 1.48965e-01 2.60996e-01
15.91980 4.03457 20.20509 -1.52027e-01 1.47112e-01 1.60325e-01 -1.52027e-01 1.47112e-01 1.60325e-01 2.65440e-01
11.91690 4.03306 20.20509 -1.47840e-01 1.51536e-01 1.58561e-01 -1.47840e-01 1.51536e-01 1.58561e-01 2.64502e-01
7.91845 4.04617 20.20509 -1.45396e-01 1.49348e-01 1.52317e-01 -1.45396e-01 1.49348e-01 1.52317e-01 2.58157e-01
3.89660 4.03385 20.20509 -1.51486e-01 1.39562e-01 1.59340e-01 -1.51486e-01 1.39562e-01 1.59340e-01 2.60413e-01
-0.09176 4.02872 20.20509 -1.45715e-01 1.39657e-01 1.70525e-01 -1.45715e-01 1.39657e-01 1.70525e-01 2.64226e-01
-4.09616 4.01458 20.20509 -1.36434e-01 1.32772e-01 1.73926e-01 -1.36434e-01 1.32772e-01 1.73926e-01 2.57862e-01
-8.10386 4.02733 20.20509 -1.38167e-01 1.56349e-01 1.58259e-01 -1.38167e-01 1.56349e-01 1.58259e-01 2.61880e-01
-12.12386 4.03191 20.20509 -1.38237e-01 1.46529e-01 1.53344e-01 -1.38237e-01 1.46529e-01 1.53344e-01 2.53169e-01
-16.14496 4.03598 20.20509 -1.49296e-01 1.43234e-01 1.57280e-01 -1.49296e-01 1.43234e-01 1.57280e-01 2.59889e-01
19.92690 0.01883 20.20509 -1.70878e-01 1.36657e-01 1.27018e-01 -1.70878e-01 1.36657e-01 1.27018e-01 2.52998e-01
15.91220 0.02271 20.20509 -1.65209e-01 1.45888e-01 1.35264e-01 -1.65209e-01 1.45888e-01 1.35264e-01 2.58599e-01
11.92740 0.02125 20.20509 -1.50321e-01 1.46496e-01 1.30583e-01 -1.50321e-01 1.46496e-01 1.30583e-01 2.47203e-01
7.92710 0.04739 20.20509 -1.45922e-01 1.50336e-01 1.21617e-01 -1.45922e-01 1.50336e-01 1.21617e-01 2.42250e-01
3.92037 0.03349 20.20509 -1.43939e-01 1.40275e-01 1.55658e-01 -1.43939e-01 1.40275e-01 1.55658e-01 2.54215e-01
-0.08516 0.01297 20.20509 -1.44423e-01 1.27056e-01 1.64919e-01 -1.44423e-01 1.27056e-01 1.64919e-01 2.53376e-01
-4.09066 -0.00550 20.20509 -1.44503e-01 1.21670e-01 1.45447e-01 -1.44503e-01 1.21670e-01 1.45447e-01 2.38411e-01
-8.10816 0.01550 20.20509 -1.54771e-01 1.47916e-01 1.39993e-01 -1.54771e-01 1.47916e-01 1.39993e-01 2.55795e-01
-12.12606 0.01584 20.20509 -1.58163e-01 1.42308e-01 1.19327e-01 -1.58163e-01 1.42308e-01 1.19327e-01 2.43939e-01
-16.13276 0.02537 20.20509 -1.62234e-01 1.46773e-01 1.26874e-01 -1.62234e-01 1.46773e-01 1.26874e-01 2.52902e-01
19.95860 -3.97480 20.20509 -1.43967e-01 1.46733e-01 -1.46942e-01 -1.43967e-01 1.46733e-01 -1.46942e-01 2.52684e-01
15.93350 -3.97670 20.20509 -1.58966e-01 1.44838e-01 -1.47719e-01 -1.58966e-01 1.44838e-01 -1.47719e-01 2.60900e-01
11.91750 -3.97590 20.20509 -1.54940e-01 1.41213e-01 -1.46989e-01 -1.54940e-01 1.41213e-01 -1.46989e-01 2.56033e-01
7.91545 -3.96230 20.20509 -1.41642e-01 1.43008e-01 -1.45257e-01 -1.41642e-01 1.43008e-01 -1.45257e-01 2.48220e-01
3.91980 -3.96820 20.20509 -1.41335e-01 1.32391e-01 -1.46965e-01 -1.41335e-01 1.32391e-01 -1.46965e-01 2.43108e-01
-0.07086 -3.96490 20.20509 -1.34699e-01 1.36832e-01 -1.50847e-01 -1.34699e-01 1.36832e-01 -1.50847e-01 2.44175e-01
-4.09586 -3.98490 20.20509 -1.45995e-01 1.27489e-01 -1.55354e-01 -1.45995e-01 1.27489e-01 -1.55354e-01 2.48400e-01
-8.09446 -3.98090 20.20509 -1.43168e-01 1.42841e-01 -1.48184e-01 -1.43168e-01 1.42841e-01 -1.48184e-01 2.50717e-01
-12.10886 -3.98130 20.20509 -1.40826e-01 1.43009e-01 -1.60217e-01 -1.40826e-01 1.43009e-01 -1.60217e-01 2.56813e-01
-16.10526 -3.98080 20.20509 -1.31427e-01 1.46614e-01 -1.40899e-01 -1.31427e-01 1.46614e-01 -1.40899e-01 2.42119e-01
19.95450 -7.96590 20.20509 -1.37997e-01 1.52595e-01 -1.59340e-01 -1.37997e-01 1.52595e-01 -1.59340e-01 2.60226e-01
15.95080 -7.97300 20.20509 -1.39820e-01 1.34323e-01 -1.81394e-01 -1.39820e-01 1.34323e-01 -1.81394e-01 2.65512e-01
11.94190 -7.97880 20.20509 -1.36742e-01 1.27947e-01 -1.61535e-01 -1.36742e-01 1.27947e-01 -1.61535e-01 2.47310e-01
7.92719 -7.95150 20.20509 -1.42970e-01 1.53143e-01 -1.65580e-01 -1.42970e-01 1.53143e-01 -1.65580e-01 2.67040e-01
3.92511 -7.96150 20.20509 -1.39723e-01 1.33980e-01 -1.62670e-01 -1.39723e-01 1.33980e-01 -1.62670e-01 2.52853e-01
-0.07456 -7.95420 20.20509 -1.36368e-01 1.44896e-01 -1.66548e-01 -1.36368e-01 1.44896e-01 -1.66548e-01 2.59479e-01
-4.09136 -7.95890 20.20509 -1.44821e-01 1.40397e-01 -1.68898e-01 -1.44821e-01 1.40397e-01 -1.68898e-01 2.63080e-01
-8.10016 -7.95620 20.20509 -1.44514e-01 1.39388e-01 -1.66116e-01 -1.44514e-01 1.39388e-01 -1.66116e-01 2.60592e-01
-12.10836 -7.97430 20.20509 -1.48014e-01 1.41481e-01 -1.70996e-01 -1.48014e-01 1.41481e-01 -1.70996e-01 2.66767e-01
-16.11696 -7.97630 20.20509 -1.33869e-01 1.42009e-01 -1.62371e-01 -1.33869e-01 1.42009e-01 -1.62371e-01 2.53873e-01
19.95420 -11.96060 20.20509 -1.40150e-01 1.50702e-01 -1.64494e-01 -1.40150e-01 1.50702e-01 -1.64494e-01 2.63460e-01
15.95500 -11.96640 20.20509 -1.39734e-01 1.31027e-01 -1.71457e-01 -1.39734e-01 1.31027e-01 -1.71457e-01 2.57082e-01
11.94520 -11.96950 20.20509 -1.48897e-01 1.31255e-01 -1.63076e-01 -1.48897e-01 1.31255e-01 -1.63076e-01 2.56889e-01
7.93294 -11.95490 20.20509 -1.44311e-01 1.52621e-01 -1.77286e-01 -1.44311e-01 1.52621e-01 -1.77286e-01 2.74862e-01
3.93205 -11.94780 20.20509 -1.39154e-01 1.45543e-01 -1.65573e-01 -1.39154e-01 1.45543e-01 -1.65573e-01 2.60694e-01
-0.07356 -11.95580 20.20509 -1.43626e-01 1.42817e-01 -1.74420e-01 -1.43626e-01 1.42817e-01 -1.74420e-01 2.67296e-01
-4.07576 -11.95660 20.20509 -1.41358e-01 1.41744e-01 -1.69459e-01 -1.41358e-01 1.41744e-01 -1.69459e-01 2.62278e-01
-8.10676 -11.94370 20.20509 -1.53059e-01 1.43926e-01 -1.52606e-01 -1.53059e-01 1.43926e-01 -1.52606e-01 2.59673e-01
-12.10916 -11.97340 20.20509 -1.54592e-01 1.36668e-01 -1.61943e-01 -1.54592e-01 1.36668e-01 -1.61943e-01 2.62302e-01
-16.12526 -11.95790 20.20509 -1.49382e-01 1.44622e-01 -1.48269e-01 -1.49382e-01 1.44622e-01 -1.48269e-01 2.55371e-01
19.94960 -15.96440 20.20509 -1.50176e-01 1.39885e-01 -1.69698e-01 -1.50176e-01 1.39885e-01 -1.69698e-01 2.66305e-01
15.95340 -15.96720 20.20509 -1.53486e-01 1.28682e-01 -1.75403e-01 -1.53486e-01 1.28682e-01 -1.75403e-01 2.66239e-01
11.93320 -15.96960 20.20509 -1.60038e-01 1.22221e-01 -1.68863e-01 -1.60038e-01 1.22221e-01 -1.68863e-01 2.62802e-01
7.92944 -15.95500 20.20509 -1.50002e-01 1.46429e-01 -1.68383e-01 -1.50002e-01 1.46429e-01 -1.68383e-01 2.68877e-01
3.91740 -15.94820 20.20509 -1.43429e-01 1.54209e-01 -1.64420e-01 -1.43429e-01 1.54209e-01 -1.64420e-01 2.67182e-01
-0.08436 -15.95920 20.20509 -1.41758e-01 1.45368e-01 -1.72002e-01 -1.41758e-01 1.45368e-01 -1.72002e-01 2.66105e-01
-4.08306 -15.95560 20.20509 -1.40764e-01 1.39936e-01 -1.64979e-01 -1.40764e-01 1.39936e-01 -1.64979e-01 2.58098e-01
-8.10496 -15.94550 20.20509 -1.36922e-01 1.52185e-01 -1.61880e-01 -1.36922e-01 1.52185e-01 -1.61880e-01 2.60985e-01
-12.09446 -15.96080 20.20509 -1.29193e-01 1.39539e-01 -1.70480e-01 -1.29193e-01 1.39539e-01 -1.70480e-01 2.55393e-01
-16.11626 -15.94630 20.20509 -1.40392e-01 1.46751e-01 -1.70360e-01 -1.40392e-01 1.46751e-01 -1.70360e-01 2.65082e-01
19.96570 -19.95090 20.20509 -1.32904e-01 1.39735e-01 -1.73020e-01 -1.32904e-01 1.39735e-01 -1.73020e-01 2.59086e-01
15.96160 -19.95420 20.20509 -1.44777e-01 1.26006e-01 -1.65347e-01 -1.44777e-01 1.26006e-01 -1.65347e-01 2.53332e-01
11.93700 -19.95880 20.20509 -1.52276e-01 1.14689e-01 -1.77197e-01 -1.52276e-01 1.14689e-01 -1.77197e-01 2.60270e-01
7.92873 -19.95120 20.20509 -1.45464e-01 1.38867e-01 -1.72957e-01 -1.45464e-01 1.38867e-01 -1.72957e-01 2.65251e-01
3.92423 -19.94480 20.20509 -1.31284e-01 1.55873e-01 -1.55107e-01 -1.31284e-01 1.55873e-01 -1.55107e-01 2.56105e-01
-0.09246 -19.95410 20.20509 -1.25180e-01 1.38773e-01 -1.57260e-01 -1.25180e-01 1.38773e-01 -1.57260e-01 2.44252e-01
-4.09286 -19.93710 20.20509 -1.21806e-01 1.46502e-01 -1.60451e-01 -1.21806e-01 1.46502e-01 -1.60451e-01 2.49087e-01
-8.10706 -19.93360 20.20509 -1.22868e-01 1.60686e-01 -1.62838e-01 -1.22868e-01 1.60686e-01 -1.62838e-01 2.59678e-01
-12.09936 -19.95670 20.20509 -1.26868e-01 1.38915e-01 -1.73901e-01 -1.26868e-01 1.38915e-01 -1.73901e-01 2.56192e-01
-16.10986 -19.94720 20.20509 -1.31665e-01 1.48688e-01 -1.67673e-01 -1.31665e-01 1.48688e-01 -1.67673e-01 2.59920e-01
19.97420 -23.94620 20.20509 -1.29104e-01 1.31074e-01 -1.70530e-01 -1.29104e-01 1.31074e-01 -1.70530e-01 2.50856e-01
15.96270 -23.93530 20.20509 -1.39883e-01 1.35528e-01 -1.65633e-01 -1.39883e-01 1.35528e-01 -1.65633e-01 2.55674e-01
11.93630 -23.94150 20.20509 -1.49381e-01 1.20501e-01 -1.71105e-01 -1.49381e-01 1.20501e-01 -1.71105e-01 2.57123e-01
7.94044 -23.94730 20.20509 -1.36856e-01 1.25915e-01 -1.70230e-01 -1.36856e-01 1.25915e-01 -1.70230e-01 2.52116e-01
3.92150 -23.93280 20.20509 -1.31088e-01 1.53716e-01 -1.59542e-01 -1.31088e-01 1.53716e-01 -1.59542e-01 2.57423e-01
-0.10436 -23.93140 20.20509 -1.37092e-01 1.42737e-01 -1.75816e-01 -1.37092e-01 1.42737e-01 -1.75816e-01 2.64725e-01
-4.09906 -23.92750 20.20509 -1.30992e-01 1.56191e-01 -1.55835e-01 -1.30992e-01 1.56191e-01 -1.55835e-01 2.56591e-01
-8.09726 -23.93230 20.20509 -1.26048e-01 1.60157e-01 -1.69363e-01 -1.26048e-01 1.60157e-01 -1.69363e-01 2.64995e-01
-12.10476 -23.95410 20.20509 -1.32075e-01 1.39566e-01 -1.69497e-01 -1.32075e-01 1.39566e-01 -1.69497e-01 2.56226e-01
-16.10766 -23.93430 20.20509 -1.27853e-01 1.51243e-01 -1.65839e-01 -1.27853e-01 1.51243e-01 -1.65839e-01 2.58309e-01
19.95410 -27.93650 20.20509 -1.42140e-01 1.34481e-01 -1.75606e-01 -1.42140e-01 1.34481e-01 -1.75606e-01 2.62919e-01
15.94390 -27.93460 20.20509 -1.48477e-01 1.40574e-01 -1.67506e-01 -1.48477e-01 1.40574e-01 -1.67506e-01 2.64319e-01
11.94430 -27.94010 20.20509 -1.36640e-01 1.29607e-01 -1.67568e-01 -1.36640e-01 1.29607e-01 -1.67568e-01 2.52086e-01
7.93139 -27.93810 20.20509 -1.35279e-01 1.24777e-01 -1.79434e-01 -1.35279e-01 1.24777e-01 -1.79434e-01 2.57034e-01
3.90843 -27.93560 20.20509 -1.43192e-01 1.45963e-01 -1.56724e-01 -1.43192e-01 1.45963e-01 -1.56724e-01 2.57627e-01
-0.10226 -27.93170 20.20509 -1.35991e-01 1.47493e-01 -1.65684e-01 -1.35991e-01 1.47493e-01 -1.65684e-01 2.60190e-01
-4.10656 -27.94390 20.20509 -1.29282e-01 1.48953e-01 -1.70877e-01 -1.29282e-01 1.48953e-01 -1.70877e-01 2.60959e-01
-8.09546 -27.93400 20.20509 -1.21366e-01 1.58163e-01 -1.73554e-01 -1.21366e-01 1.58163e-01 -1.73554e-01 2.64322e-01
-12.11186 -27.95510 20.20509 -1.26033e-01 1.41545e-01 -1.70715e-01 -1.26033e-01 1.41545e-01 -1.70715e-01 2.55074e-01
-16.13496 -27.93540 20.20509 -1.39859e-01 1.45792e-01 -1.73061e-01 -1.39859e-01 1.45792e-01 -1.73061e-01 2.66019e-01
19.95370 -31.92730 20.20509 -1.21405e-01 1.52646e-01 -1.65001e-01 -1.21405e-01 1.52646e-01 -1.65001e-01 2.55470e-01
15.95000 -31.92660 20.20509 -1.27598e-01 1.52772e-01 -1.49070e-01 -1.27598e-01 1.52772e-01 -1.49070e-01 2.48681e-01
11.94460 -31.92870 20.20509 -1.31323e-01 1.38009e-01 -1.58075e-01 -1.31323e-01 1.38009e-01 -1.58075e-01 2.47548e-01
7.93854 -31.92890 20.20509 -1.29753e-01 1.34759e-01 -1.60273e-01 -1.29753e-01 1.34759e-01 -1.60273e-01 2.46340e-01
3.91833 -31.92640 20.20509 -1.43053e-01 1.45624e-01 -1.65473e-01 -1.43053e-01 1.45624e-01 -1.65473e-01 2.62777e-01
-0.10366 -31.93510 20.20509 -1.55435e-01 1.38832e-01 -1.59734e-01 -1.55435e-01 1.38832e-01 -1.59734e-01 2.62582e-01
-4.10606 -31.94870 20.20509 -1.47846e-01 1.27066e-01 -1.67849e-01 -1.47846e-01 1.27066e-01 -1.67849e-01 2.57250e-01
-8.12486 -31.94040 20.20509 -1.43863e-01 1.54038e-01 -1.61994e-01 -1.43863e-01 1.54038e-01 -1.61994e-01 2.65831e-01
-12.13496 -31.96170 20.20509 -1.38895e-01 1.34198e-01 -1.68442e-01 -1.38895e-01 1.34198e-01 -1.68442e-01 2.56269e-01
-16.14806 -31.94680 20.20509 -1.31627e-01 1.43894e-01 -1.71627e-01 -1.31627e-01 1.43894e-01 -1.71627e-01 2.59782e-01
19.95190 -35.94570 20.20509 -1.34490e-01 1.51961e-01 -1.60197e-01 -1.34490e-01 1.51961e-01 -1.60197e-01 2.58539e-01
15.93670 -35.94430 20.20509 -1.38021e-01 1.45294e-01 -1.54604e-01 -1.38021e-01 1.45294e-01 -1.54604e-01 2.53106e-01
11.93340 -35.93820 20.20509 -1.36144e-01 1.43836e-01 -1.55476e-01 -1.36144e-01 1.43836e-01 -1.55476e-01 2.51787e-01
7.93764 -35.93720 20.20509 -1.32583e-01 1.33675e-01 -1.60580e-01 -1.32583e-01 1.33675e-01 -1.60580e-01 2.47453e-01
3.91972 -35.92450 20.20509 -1.40746e-01 1.53331e-01 -1.62025e-01 -1.40746e-01 1.53331e-01 -1.62025e-01 2.63765e-01
-0.09636 -35.93370 20.20509 -1.46402e-01 1.34600e-01 -1.53321e-01 -1.46402e-01 1.34600e-01 -1.53321e-01 2.51113e-01
-4.09506 -35.93830 20.20509 -1.52655e-01 1.26256e-01 -1.64329e-01 -1.52655e-01 1.26256e-01 -1.64329e-01 2.57387e-01
-8.11996 -35.94320 20.20509 -1.61424e-01 1.41864e-01 -1.52654e-01 -1.61424e-01 1.41864e-01 -1.52654e-01 2.63603e-01
-12.13906 -35.97520 20.20509 -1.56733e-01 1.02389e-01 -1.72911e-01 -1.56733e-01 1.02389e-01 -1.72911e-01 2.54847e-01
-16.14296 -35.95850 20.20509 -1.46150e-01 1.34964e-01 -1.64421e-01 -1.46150e-01 1.34964e-01 -1.64421e-01 2.58088e-01
19.93310 -39.95570 20.20509 -1.59258e-01 1.39476e-01 -1.70311e-01 -1.59258e-01 1.39476e-01 -1.70311e-01 2.71703e-01
15.91350 -39.94000 20.20509 -1.56668e-01 1.47471e-01 -1.53779e-01 -1.56668e-01 1.47471e-01 -1.53779e-01 2.64463e-01
11.91490 -39.94370 20.20509 -1.54230e-01 1.49057e-01 -1.54082e-01 -1.54230e-01 1.49057e-01 -1.54082e-01 2.64095e-01
7.92458 -39.94100 20.20509 -1.39389e-01 1.36858e-01 -1.68889e-01 -1.39389e-01 1.36858e-01 -1.68889e-01 2.58230e-01
3.91125 -39.94210 20.20509 -1.38768e-01 1.35878e-01 -1.71241e-01 -1.38768e-01 1.35878e-01 -1.71241e-01 2.58926e-01
-0.09796 -39.94050 20.20509 -1.42542e-01 1.37866e-01 -1.71102e-01 -1.42542e-01 1.37866e-01 -1.71102e-01 2.61918e-01
-4.08896 -39.94810 20.20509 -1.48179e-01 1.28540e-01 -1.76212e-01 -1.48179e-01 1.28540e-01 -1.76212e-01 2.63686e-01
-8.10436 -39.94280 20.20509 -1.60062e-01 1.34675e-01 -1.55920e-01 -1.60062e-01 1.34675e-01 -1.55920e-01 2.60899e-01
-12.12006 -39.97550 20.20509 -1.66485e-01 9.54894e-02 -1.61324e-01 -1.66485e-01 9.54894e-02 -1.61324e-01 2.50721e-01
-16.14496 -39.97030 20.20509 -1.68059e-01 1.25400e-01 -1.66283e-01 -1.68059e-01 1.25400e-01 -1.66283e-01 2.67617e-01
19.93990 -43.95450 20.20509 -1.52065e-01 1.35780e-01 -1.62249e-01 -1.52065e-01 1.35780e-01 -1.62249e-01 2.60547e-01
15.91230 -43.96750 20.20509 -1.49628e-01 1.32839e-01 -1.70050e-01 -1.49628e-01 1.32839e-01 -1.70050e-01 2.62587e-01
11.92290 -43.95330 20.20509 -1.38753e-01 1.44436e-01 -1.70948e-01 -1.38753e-01 1.44436e-01 -1.70948e-01 2.63320e-01
7.91532 -43.93750 20.20509 -1.40390e-01 1.42677e-01 -1.72291e-01 -1.40390e-01 1.42677e-01 -1.72291e-01 2.64103e-01
3.90370 -43.94100 20.20509 -1.48804e-01 1.30057e-01 -1.79114e-01 -1.48804e-01 1.30057e-01 -1.79114e-01 2.66720e-01
-0.09196 -43.93840 20.20509 -1.38385e-01 1.40304e-01 -1.69112e-01 -1.38385e-01 1.40304e-01 -1.69112e-01 2.59682e-01
-4.06676 -43.94180 20.20509 -1.31277e-01 1.31054e-01 -1.69904e-01 -1.31277e-01 1.31054e-01 -1.69904e-01 2.51548e-01
-8.07766 -43.94400 20.20509 -1.34838e-01 1.33595e-01 -1.58101e-01 -1.34838e-01 1.33595e-01 -1.58101e-01 2.47032e-01
-12.09606 -43.96460 20.20509 -1.40752e-01 1.11369e-01 -1.73449e-01 -1.40752e-01 1.11369e-01 -1.73449e-01 2.49597e-01
-16.12416 -43.94010 20.20509 -1.50174e-01 1.41564e-01 -1.76601e-01 -1.50174e-01 1.41564e-01 -1.76601e-01 2.71626e-01
ZONE T="XY_mid_T1.500_C20.205_TS10000", I=10, J=24, K=1, DATAPACKING=POINT, STRANDID=1, SOLUTIONTIME=10000.000000
19.93280 48.07310 20.20509 -1.51253e-01 1.42387e-01 -1.29437e-01 -1.51253e-01 1.42387e-01 -1.29437e-01 2.44756e-01
15.91340 48.06060 20.20509 -1.46207e-01 1.37072e-01 -1.40805e-01 -1.46207e-01 1.37072e-01 -1.40805e-01 2.44931e-01
11.91420 48.07340 20.20509 -1.38832e-01 1.48354e-01 -1.54345e-01 -1.38832e-01 1.48354e-01 -1.54345e-01 2.55158e-01
7.91778 48.06370 20.20509 -1.45733e-01 1.38944e-01 -1.38300e-01 -1.45733e-01 1.38944e-01 -1.38300e-01 2.44275e-01
3.91243 48.06840 20.20509 -1.51674e-01 1.40212e-01 -1.28964e-01 -1.51674e-01 1.40212e-01 -1.28964e-01 2.43508e-01
-0.08596 48.08060 20.20509 -1.46290e-01 1.34773e-01 -1.30280e-01 -1.46290e-01 1.34773e-01 -1.30280e-01 2.37777e-01
-4.09016 48.08920 20.20509 -1.47477e-01 1.56994e-01 -1.34050e-01 -1.47477e-01 1.56994e-01 -1.34050e-01 2.53704e-01
-8.08816 48.07790 20.20509 -1.52454e-01 1.57265e-01 -1.24822e-01 -1.52454e-01 1.57265e-01 -1.24822e-01 2.52102e-01
-12.10836 48.07430 20.20509 -1.48232e-01 1.41662e-01 -1.32212e-01 -1.48232e-01 1.41662e-01 -1.32212e-01 2.43969e-01
-16.14096 48.07920 20.20509 -1.59718e-01 1.35330e-01 -1.50111e-01 -1.59718e-01 1.35330e-01 -1.50111e-01 2.57599e-01
19.92950 44.07740 20.20509 -1.41134e-01 1.36275e-01 1.60232e-01 -1.41134e-01 1.36275e-01 1.60232e-01 2.53306e-01
15.90890 44.07180 20.20509 -1.45601e-01 1.42559e-01 1.59800e-01 -1.45601e-01 1.42559e-01 1.59800e-01 2.58957e-01
11.89480 44.08840 20.20509 -1.46998e-01 1.48698e-01 1.38205e-01 -1.46998e-01 1.48698e-01 1.38205e-01 2.50640e-01
7.89238 44.06970 20.20509 -1.48773e-01 1.36981e-01 1.48089e-01 -1.48773e-01 1.36981e-01 1.48089e-01 2.50655e-01
3.91375 44.07850 20.20509 -1.54675e-01 1.45056e-01 1.32395e-01 -1.54675e-01 1.45056e-01 1.32395e-01 2.49988e-01
-0.08396 44.08200 20.20509 -1.63269e-01 1.33955e-01 1.31582e-01 -1.63269e-01 1.33955e-01 1.31582e-01 2.48826e-01
-4.08106 44.08500 20.20509 -1.60090e-01 1.53597e-01 1.37548e-01 -1.60090e-01 1.53597e-01 1.37548e-01 2.61037e-01
-8.09206 44.08880 20.20509 -1.52025e-01 1.48745e-01 1.36261e-01 -1.52025e-01 1.48745e-01 1.36261e-01 2.52594e-01
-12.09496 44.08470 20.20509 -1.40418e-01 1.29341e-01 1.46292e-01 -1.40418e-01 1.29341e-01 1.46292e-01 2.40515e-01
-16.12486 44.08350 20.20509 -1.37100e-01 1.35337e-01 1.49699e-01 -1.37100e-01 1.35337e-01 1.49699e-01 2.43972e-01