VARIABLES= "X" "Z" "Ysec" "Px" "Py" "Pz" "U" "V" "W" "Pmag"
ZONE T="XZ_mid_T1.500_C48.066_TS0", I=10, J=10, K=1, DATAPACKING=POINT, STRANDID=1, SOLUTIONTIME=0.000000
-16.14096 20.28690 48.06585 -1.60961e-01 1.48113e-01 -1.55247e-01 -1.60961e-01 -1.55247e-01 1.48113e-01 2.68230e-01
-12.10836 20.29840 48.06585 -1.58754e-01 1.30191e-01 -1.47619e-01 -1.58754e-01 -1.47619e-01 1.30191e-01 2.52871e-01
-8.08816 20.30070 48.06585 -1.49112e-01 1.38521e-01 -1.36308e-01 -1.49112e-01 -1.36308e-01 1.38521e-01 2.44954e-01
-4.09016 20.28440 48.06585 -1.47300e-01 1.47263e-01 -1.43423e-01 -1.47300e-01 -1.43423e-01 1.47263e-01 2.52891e-01
-0.08596 20.26670 48.06585 -1.51289e-01 1.41289e-01 -1.60628e-01 -1.51289e-01 -1.60628e-01 1.41289e-01 2.62015e-01
3.91243 20.28110 48.06585 -1.55041e-01 1.29312e-01 -1.50051e-01 -1.55041e-01 -1.50051e-01 1.29312e-01 2.51545e-01
7.91778 20.25870 48.06585 -1.44065e-01 1.43994e-01 -1.52319e-01 -1.44065e-01 -1.52319e-01 1.43994e-01 2.54342e-01
11.91420 20.26860 48.06585 -1.42051e-01 1.46257e-01 -1.54344e-01 -1.42051e-01 -1.54344e-01 1.46257e-01 2.55718e-01
15.91340 20.25910 48.06585 -1.50906e-01 1.22685e-01 -1.64377e-01 -1.50906e-01 -1.64377e-01 1.22685e-01 2.54645e-01
19.93280 20.28660 48.06585 -1.56349e-01 1.36207e-01 -1.38671e-01 -1.56349e-01 -1.38671e-01 1.36207e-01 2.49453e-01
-16.11496 16.25600 48.06585 -1.52343e-01 1.18453e-01 -1.59056e-01 -1.52343e-01 -1.59056e-01 1.18453e-01 2.50077e-01
-12.10906 16.26350 48.06585 -1.57551e-01 1.50790e-01 -1.48772e-01 -1.57551e-01 -1.48772e-01 1.50790e-01 2.63995e-01
-8.10886 16.26580 48.06585 -1.57269e-01 1.25264e-01 -1.42040e-01 -1.57269e-01 -1.42040e-01 1.25264e-01 2.46171e-01
-4.08826 16.23380 48.06585 -1.48827e-01 1.25068e-01 -1.64691e-01 -1.48827e-01 -1.64691e-01 1.25068e-01 2.54784e-01
-0.07816 16.22090 48.06585 -1.41792e-01 1.30501e-01 -1.67057e-01 -1.41792e-01 -1.67057e-01 1.30501e-01 2.55037e-01
3.90948 16.22560 48.06585 -1.47584e-01 1.37871e-01 -1.60370e-01 -1.47584e-01 -1.60370e-01 1.37871e-01 2.57892e-01
7.89479 16.22920 48.06585 -1.56453e-01 1.32130e-01 -1.43758e-01 -1.56453e-01 -1.43758e-01 1.32130e-01 2.50205e-01
11.91980 16.22510 48.06585 -1.48942e-01 1.30342e-01 -1.54297e-01 -1.48942e-01 -1.54297e-01 1.30342e-01 2.50959e-01
15.92140 16.24200 48.06585 -1.52684e-01 1.20811e-01 -1.50150e-01 -1.52684e-01 -1.50150e-01 1.20811e-01 2.45871e-01
19.95050 16.27060 48.06585 -1.56644e-01 1.28826e-01 -1.37521e-01 -1.56644e-01 -1.37521e-01 1.28826e-01 2.45041e-01
-16.12676 12.23320 48.06585 -1.62293e-01 1.37612e-01 -1.49602e-01 -1.62293e-01 -1.49602e-01 1.37612e-01 2.60109e-01
-12.09876 12.22660 48.06585 -1.52561e-01 1.13105e-01 -1.45200e-01 -1.52561e-01 -1.45200e-01 1.13105e-01 2.39062e-01
-8.08696 12.22300 48.06585 -1.46449e-01 1.34972e-01 -1.45961e-01 -1.46449e-01 -1.45961e-01 1.34972e-01 2.46920e-01
-4.08776 12.20280 48.06585 -1.50476e-01 1.25575e-01 -1.63176e-01 -1.50476e-01 -1.63176e-01 1.25575e-01 2.55027e-01
-0.08506 12.20940 48.06585 -1.41492e-01 1.42361e-01 -1.54428e-01 -1.41492e-01 -1.54428e-01 1.42361e-01 2.53248e-01
3.90469 12.22410 48.06585 -1.40302e-01 1.38352e-01 -1.48993e-01 -1.40302e-01 -1.48993e-01 1.38352e-01 2.47032e-01
7.89501 12.21940 48.06585 -1.49518e-01 1.42553e-01 -1.44661e-01 -1.49518e-01 -1.44661e-01 1.42553e-01 2.52197e-01
11.89640 12.21680 48.06585 -1.64610e-01 1.34465e-01 -1.46489e-01 -1.64610e-01 -1.46489e-01 1.34465e-01 2.58140e-01
15.90790 12.23370 48.06585 -1.72287e-01 1.30051e-01 -1.38497e-01 -1.72287e-01 -1.38497e-01 1.30051e-01 2.56471e-01
19.94650 12.22380 48.06585 -1.67651e-01 1.25401e-01 -1.56726e-01 -1.67651e-01 -1.56726e-01 1.25401e-01 2.61525e-01
-16.15166 8.22127 48.06585 -1.70292e-01 1.34248e-01 -1.44650e-01 -1.70292e-01 -1.44650e-01 1.34248e-01 2.60664e-01
-12.12066 8.19538 48.06585 -1.64046e-01 1.29209e-01 -1.44444e-01 -1.64046e-01 -1.44444e-01 1.29209e-01 2.53909e-01
-8.10256 8.18880 48.06585 -1.55868e-01 1.20602e-01 -1.48505e-01 -1.55868e-01 -1.48505e-01 1.20602e-01 2.46766e-01
-4.10486 8.18497 48.06585 -1.51589e-01 1.40380e-01 -1.39668e-01 -1.51589e-01 -1.39668e-01 1.40380e-01 2.49385e-01
-0.08816 8.19511 48.06585 -1.36122e-01 1.43601e-01 -1.37465e-01 -1.36122e-01 -1.37465e-01 1.43601e-01 2.40929e-01
3.90715 8.19777 48.06585 -1.31816e-01 1.38573e-01 -1.43195e-01 -1.31816e-01 -1.43195e-01 1.38573e-01 2.38919e-01
7.91543 8.20275 48.06585 -1.39222e-01 1.52497e-01 -1.44816e-01 -1.39222e-01 -1.44816e-01 1.52497e-01 2.52210e-01
11.91370 8.20975 48.06585 -1.51632e-01 1.40521e-01 -1.32048e-01 -1.51632e-01 -1.32048e-01 1.40521e-01 2.45306e-01
15.92950 8.21590 48.06585 -1.62495e-01 1.45176e-01 -1.41636e-01 -1.62495e-01 -1.41636e-01 1.45176e-01 2.59888e-01
19.94150 8.21099 48.06585 -1.65020e-01 1.30316e-01 -1.48097e-01 -1.65020e-01 -1.48097e-01 1.30316e-01 2.57190e-01
-16.14526 4.19965 48.06585 -1.47356e-01 1.47975e-01 -1.43665e-01 -1.47356e-01 -1.43665e-01 1.47975e-01 2.53476e-01
-12.11716 4.19184 48.06585 -1.41602e-01 1.46940e-01 -1.30387e-01 -1.41602e-01 -1.30387e-01 1.46940e-01 2.42164e-01
-8.11266 4.17210 48.06585 -1.48435e-01 1.17338e-01 -1.45956e-01 -1.48435e-01 -1.45956e-01 1.17338e-01 2.38965e-01
-4.08196 4.18744 48.06585 -1.45577e-01 1.42263e-01 -1.34972e-01 -1.45577e-01 -1.34972e-01 1.42263e-01 2.44231e-01
-0.08316 4.18938 48.06585 -1.53763e-01 1.35017e-01 -1.32479e-01 -1.53763e-01 -1.32479e-01 1.35017e-01 2.43769e-01
3.91416 4.18941 48.06585 -1.59143e-01 1.31074e-01 -1.29754e-01 -1.59143e-01 -1.29754e-01 1.31074e-01 2.43604e-01
7.92288 4.19757 48.06585 -1.50820e-01 1.45464e-01 -1.35986e-01 -1.50820e-01 -1.35986e-01 1.45464e-01 2.49797e-01
11.91600 4.21284 48.06585 -1.58117e-01 1.54649e-01 -1.19280e-01 -1.58117e-01 -1.19280e-01 1.54649e-01 2.51287e-01
15.93590 4.20062 48.06585 -1.59652e-01 1.39412e-01 -1.39996e-01 -1.59652e-01 -1.39996e-01 1.39412e-01 2.54015e-01
19.93430 4.19368 48.06585 -1.55540e-01 1.48166e-01 -1.41956e-01 -1.55540e-01 -1.41956e-01 1.48166e-01 2.57483e-01
-16.14816 0.17898 48.06585 -1.52461e-01 1.56647e-01 -1.40660e-01 -1.52461e-01 -1.40660e-01 1.56647e-01 2.59938e-01
-12.13526 0.17052 48.06585 -1.57539e-01 1.29578e-01 -1.28101e-01 -1.57539e-01 -1.28101e-01 1.29578e-01 2.40871e-01
-8.10126 0.17433 48.06585 -1.55689e-01 1.34964e-01 -1.36466e-01 -1.55689e-01 -1.36466e-01 1.34964e-01 2.47138e-01
-4.09166 0.18294 48.06585 -1.54183e-01 1.42533e-01 -1.33761e-01 -1.54183e-01 -1.33761e-01 1.42533e-01 2.48958e-01
-0.09486 0.18969 48.06585 -1.55382e-01 1.37250e-01 -1.31167e-01 -1.55382e-01 -1.31167e-01 1.37250e-01 2.45328e-01
3.92949 0.19258 48.06585 -1.50684e-01 1.51536e-01 -1.21887e-01 -1.50684e-01 -1.21887e-01 1.51536e-01 2.46019e-01
7.92586 0.17851 48.06585 -1.50024e-01 1.54909e-01 -1.37396e-01 -1.50024e-01 -1.37396e-01 1.54909e-01 2.55699e-01
11.91160 0.18956 48.06585 -1.61135e-01 1.47765e-01 -1.32937e-01 -1.61135e-01 -1.32937e-01 1.47765e-01 2.55874e-01
15.93630 0.18300 48.06585 -1.57554e-01 1.38014e-01 -1.30298e-01 -1.57554e-01 -1.30298e-01 1.38014e-01 2.46676e-01
19.94820 0.18352 48.06585 -1.45362e-01 1.39000e-01 -1.38089e-01 -1.45362e-01 -1.38089e-01 1.39000e-01 2.43967e-01
-16.16216 -3.82866 48.06585 -1.66344e-01 1.37956e-01 -1.33475e-01 -1.66344e-01 -1.33475e-01 1.37956e-01 2.54004e-01
-12.12996 -3.83306 48.06585 -1.64794e-01 1.43971e-01 -1.24370e-01 -1.64794e-01 -1.24370e-01 1.43971e-01 2.51700e-01
-8.11196 -3.83876 48.06585 -1.57636e-01 1.35662e-01 -1.33150e-01 -1.57636e-01 -1.33150e-01 1.35662e-01 2.46945e-01
-4.07616 -3.82816 48.06585 -1.47057e-01 1.29678e-01 -1.34642e-01 -1.47057e-01 -1.34642e-01 1.29678e-01 2.37846e-01
-0.07186 -3.82156 48.06585 -1.43269e-01 1.32737e-01 -1.39180e-01 -1.43269e-01 -1.39180e-01 1.32737e-01 2.39825e-01
3.92930 -3.81436 48.06585 -1.47613e-01 1.61973e-01 -1.25562e-01 -1.47613e-01 -1.25562e-01 1.61973e-01 2.52568e-01
7.91856 -3.82786 48.06585 -1.54239e-01 1.50572e-01 -1.27253e-01 -1.54239e-01 -1.27253e-01 1.50572e-01 2.50310e-01
11.92620 -3.82826 48.06585 -1.50449e-01 1.43107e-01 -1.36053e-01 -1.50449e-01 -1.36053e-01 1.43107e-01 2.48243e-01
15.93550 -3.83746 48.06585 -1.46759e-01 1.46351e-01 -1.27846e-01 -1.46759e-01 -1.27846e-01 1.46351e-01 2.43519e-01
19.93370 -3.84896 48.06585 -1.53175e-01 1.30517e-01 -1.41630e-01 -1.53175e-01 -1.41630e-01 1.30517e-01 2.46081e-01
-16.14496 -7.85576 48.06585 -1.58140e-01 1.39869e-01 -1.42126e-01 -1.58140e-01 -1.42126e-01 1.39869e-01 2.54502e-01
-12.11246 -7.83156 48.06585 -1.48252e-01 1.50979e-01 -1.08930e-01 -1.48252e-01 -1.08930e-01 1.50979e-01 2.37989e-01
-8.09326 -7.84286 48.06585 -1.42648e-01 1.44983e-01 -1.32710e-01 -1.42648e-01 -1.32710e-01 1.44983e-01 2.42859e-01
-4.07296 -7.84086 48.06585 -1.41922e-01 1.39229e-01 -1.33541e-01 -1.41922e-01 -1.33541e-01 1.39229e-01 2.39500e-01
-0.07866 -7.83986 48.06585 -1.46023e-01 1.40651e-01 -1.49304e-01 -1.46023e-01 -1.49304e-01 1.40651e-01 2.51787e-01
3.91880 -7.82596 48.06585 -1.45893e-01 1.42290e-01 -1.31564e-01 -1.45893e-01 -1.31564e-01 1.42290e-01 2.42571e-01
7.92666 -7.83336 48.06585 -1.31934e-01 1.69929e-01 -1.17938e-01 -1.31934e-01 -1.17938e-01 1.69929e-01 2.45340e-01
11.92460 -7.84916 48.06585 -1.37320e-01 1.46992e-01 -1.35767e-01 -1.37320e-01 -1.35767e-01 1.46992e-01 2.42685e-01
15.92830 -7.84396 48.06585 -1.44452e-01 1.60117e-01 -1.33311e-01 -1.44452e-01 -1.33311e-01 1.60117e-01 2.53527e-01
19.93430 -7.85056 48.06585 -1.52407e-01 1.47153e-01 -1.31530e-01 -1.52407e-01 -1.31530e-01 1.47153e-01 2.49363e-01
-16.14986 -11.88166 48.06585 -1.54460e-01 1.29411e-01 -1.48449e-01 -1.54460e-01 -1.48449e-01 1.29411e-01 2.50285e-01
-12.14746 -11.84286 48.06585 -1.71855e-01 1.32521e-01 -1.18834e-01 -1.71855e-01 -1.18834e-01 1.32521e-01 2.47422e-01
-8.10366 -11.85306 48.06585 -1.66602e-01 1.35120e-01 -1.30039e-01 -1.66602e-01 -1.30039e-01 1.35120e-01 2.50846e-01
-4.07956 -11.85466 48.06585 -1.54431e-01 1.33248e-01 -1.32289e-01 -1.54431e-01 -1.32289e-01 1.33248e-01 2.43114e-01
-0.07026 -11.85356 48.06585 -1.47616e-01 1.20742e-01 -1.49307e-01 -1.47616e-01 -1.49307e-01 1.20742e-01 2.42202e-01
3.92599 -11.85036 48.06585 -1.42014e-01 1.49631e-01 -1.29316e-01 -1.42014e-01 -1.29316e-01 1.49631e-01 2.43475e-01
7.90982 -11.84236 48.06585 -1.45013e-01 1.42276e-01 -1.23832e-01 -1.45013e-01 -1.23832e-01 1.42276e-01 2.37919e-01
11.91090 -11.84336 48.06585 -1.46102e-01 1.52796e-01 -1.33393e-01 -1.46102e-01 -1.33393e-01 1.52796e-01 2.49972e-01
15.91500 -11.85666 48.06585 -1.46421e-01 1.42679e-01 -1.39229e-01 -1.46421e-01 -1.39229e-01 1.42679e-01 2.47348e-01
19.93420 -11.85266 48.06585 -1.42961e-01 1.41811e-01 -1.38115e-01 -1.42961e-01 -1.38115e-01 1.41811e-01 2.44180e-01
-16.14006 -15.87946 48.06585 -1.49706e-01 1.54003e-01 -1.40224e-01 -1.49706e-01 -1.40224e-01 1.54003e-01 2.56499e-01
-12.12456 -15.86416 48.06585 -1.49392e-01 1.41246e-01 -1.36095e-01 -1.49392e-01 -1.36095e-01 1.41246e-01 2.46557e-01
-8.09556 -15.87076 48.06585 -1.54260e-01 1.46443e-01 -1.30919e-01 -1.54260e-01 -1.30919e-01 1.46443e-01 2.49763e-01
-4.06866 -15.88026 48.06585 -1.43448e-01 1.49116e-01 -1.31823e-01 -1.43448e-01 -1.31823e-01 1.49116e-01 2.45337e-01
-0.06106 -15.88276 48.06585 -1.31910e-01 1.32972e-01 -1.48958e-01 -1.31910e-01 -1.48958e-01 1.32972e-01 2.39312e-01
3.91955 -15.87126 48.06585 -1.34629e-01 1.72775e-01 -1.31908e-01 -1.34629e-01 -1.31908e-01 1.72775e-01 2.55687e-01
7.91987 -15.87766 48.06585 -1.36406e-01 1.55642e-01 -1.38628e-01 -1.36406e-01 -1.38628e-01 1.55642e-01 2.49096e-01
11.92270 -15.88836 48.06585 -1.44180e-01 1.31980e-01 -1.48603e-01 -1.44180e-01 -1.48603e-01 1.31980e-01 2.45539e-01
15.91820 -15.89486 48.06585 -1.54180e-01 1.35879e-01 -1.54596e-01 -1.54180e-01 -1.54596e-01 1.35879e-01 2.57166e-01
19.93580 -15.89476 48.06585 -1.51385e-01 1.40076e-01 -1.51128e-01 -1.51385e-01 -1.51128e-01 1.40076e-01 2.55692e-01
ZONE T="XZ_mid_T1.500_C48.066_TS10000", I=10, J=10, K=1, DATAPACKING=POINT, STRANDID=1, SOLUTIONTIME=10000.000000
-16.14096 20.28690 48.06585 -1.59718e-01 1.35330e-01 -1.50111e-01 -1.59718e-01 -1.50111e-01 1.35330e-01 2.57599e-01
-12.10836 20.29840 48.06585 -1.48232e-01 1.41662e-01 -1.32212e-01 -1.48232e-01 -1.32212e-01 1.41662e-01 2.43969e-01
-8.08816 20.30070 48.06585 -1.52454e-01 1.57265e-01 -1.24822e-01 -1.52454e-01 -1.24822e-01 1.57265e-01 2.52102e-01
-4.09016 20.28440 48.06585 -1.47477e-01 1.56994e-01 -1.34050e-01 -1.47477e-01 -1.34050e-01 1.56994e-01 2.53704e-01
-0.08596 20.26670 48.06585 -1.46290e-01 1.34773e-01 -1.30280e-01 -1.46290e-01 -1.30280e-01 1.34773e-01 2.37777e-01
3.91243 20.28110 48.06585 -1.51674e-01 1.40212e-01 -1.28964e-01 -1.51674e-01 -1.28964e-01 1.40212e-01 2.43508e-01
7.91778 20.25870 48.06585 -1.45733e-01 1.38944e-01 -1.38300e-01 -1.45733e-01 -1.38300e-01 1.38944e-01 2.44275e-01
11.91420 20.26860 48.06585 -1.38832e-01 1.48354e-01 -1.54345e-01 -1.38832e-01 -1.54345e-01 1.48354e-01 2.55158e-01
15.91340 20.25910 48.06585 -1.46207e-01 1.37072e-01 -1.40805e-01 -1.46207e-01 -1.40805e-01 1.37072e-01 2.44931e-01
19.93280 20.28660 48.06585 -1.51253e-01 1.42387e-01 -1.29437e-01 -1.51253e-01 -1.29437e-01 1.42387e-01 2.44756e-01
-16.11496 16.25600 48.06585 -1.44107e-01 1.21040e-01 -1.38123e-01 -1.44107e-01 -1.38123e-01 1.21040e-01 2.33443e-01
-12.10906 16.26350 48.06585 -1.47376e-01 1.52625e-01 -1.30189e-01 -1.47376e-01 -1.30189e-01 1.52625e-01 2.48924e-01
-8.10886 16.26580 48.06585 -1.56385e-01 1.43563e-01 -1.23688e-01 -1.56385e-01 -1.23688e-01 1.43563e-01 2.45694e-01
-4.08826 16.23380 48.06585 -1.58636e-01 1.25905e-01 -1.35177e-01 -1.58636e-01 -1.35177e-01 1.25905e-01 2.43496e-01
-0.07816 16.22090 48.06585 -1.60053e-01 1.42427e-01 -1.27467e-01 -1.60053e-01 -1.27467e-01 1.42427e-01 2.49300e-01
3.90948 16.22560 48.06585 -1.52713e-01 1.38932e-01 -1.32912e-01 -1.52713e-01 -1.32912e-01 1.38932e-01 2.45538e-01
7.89479 16.22920 48.06585 -1.42049e-01 1.26731e-01 -1.34036e-01 -1.42049e-01 -1.34036e-01 1.26731e-01 2.32819e-01
11.91980 16.22510 48.06585 -1.38121e-01 1.43806e-01 -1.43209e-01 -1.38121e-01 -1.43209e-01 1.43806e-01 2.45493e-01
15.92140 16.24200 48.06585 -1.30834e-01 1.33819e-01 -1.38219e-01 -1.30834e-01 -1.38219e-01 1.33819e-01 2.32657e-01
19.95050 16.27060 48.06585 -1.31752e-01 1.33264e-01 -1.33817e-01 -1.31752e-01 -1.33817e-01 1.33264e-01 2.30271e-01
-16.12676 12.23320 48.06585 -1.54394e-01 1.36303e-01 -1.43339e-01 -1.54394e-01 -1.43339e-01 1.36303e-01 2.50922e-01
-12.09876 12.22660 48.06585 -1.54442e-01 1.44357e-01 -1.43689e-01 -1.54442e-01 -1.43689e-01 1.44357e-01 2.55612e-01
-8.08696 12.22300 48.06585 -1.60182e-01 1.59295e-01 -1.22032e-01 -1.60182e-01 -1.22032e-01 1.59295e-01 2.56758e-01
-4.08776 12.20280 48.06585 -1.56362e-01 1.30043e-01 -1.34622e-01 -1.56362e-01 -1.34622e-01 1.30043e-01 2.43892e-01
-0.08506 12.20940 48.06585 -1.55208e-01 1.42614e-01 -1.26554e-01 -1.55208e-01 -1.26554e-01 1.42614e-01 2.45854e-01
3.90469 12.22410 48.06585 -1.51526e-01 1.43272e-01 -1.34479e-01 -1.51526e-01 -1.34479e-01 1.43272e-01 2.48136e-01
7.89501 12.21940 48.06585 -1.48579e-01 1.34357e-01 -1.29538e-01 -1.48579e-01 -1.29538e-01 1.34357e-01 2.38554e-01
11.89640 12.21680 48.06585 -1.54729e-01 1.40554e-01 -1.39917e-01 -1.54729e-01 -1.39917e-01 1.40554e-01 2.51541e-01
15.90790 12.23370 48.06585 -1.60568e-01 1.51174e-01 -1.34909e-01 -1.60568e-01 -1.34909e-01 1.51174e-01 2.58526e-01
19.94650 12.22380 48.06585 -1.61958e-01 1.51767e-01 -1.32962e-01 -1.61958e-01 -1.32962e-01 1.51767e-01 2.58733e-01
-16.15166 8.22127 48.06585 -1.51007e-01 1.50315e-01 -1.41435e-01 -1.51007e-01 -1.41435e-01 1.50315e-01 2.55737e-01
-12.12066 8.19538 48.06585 -1.54455e-01 1.54873e-01 -1.39150e-01 -1.54455e-01 -1.39150e-01 1.54873e-01 2.59239e-01
-8.10256 8.18880 48.06585 -1.65579e-01 1.58704e-01 -1.23163e-01 -1.65579e-01 -1.23163e-01 1.58704e-01 2.60332e-01
-4.10486 8.18497 48.06585 -1.61296e-01 1.38706e-01 -1.28174e-01 -1.61296e-01 -1.28174e-01 1.38706e-01 2.48363e-01
-0.08816 8.19511 48.06585 -1.55765e-01 1.27031e-01 -1.26596e-01 -1.55765e-01 -1.26596e-01 1.27031e-01 2.37541e-01
3.90715 8.19777 48.06585 -1.51986e-01 1.44161e-01 -1.24547e-01 -1.51986e-01 -1.24547e-01 1.44161e-01 2.43709e-01
7.91543 8.20275 48.06585 -1.50311e-01 1.38572e-01 -1.29360e-01 -1.50311e-01 -1.29360e-01 1.38572e-01 2.41929e-01
11.91370 8.20975 48.06585 -1.51379e-01 1.41217e-01 -1.50699e-01 -1.51379e-01 -1.50699e-01 1.41217e-01 2.56063e-01
15.92950 8.21590 48.06585 -1.52230e-01 1.38843e-01 -1.37435e-01 -1.52230e-01 -1.37435e-01 1.38843e-01 2.47669e-01
19.94150 8.21099 48.06585 -1.48957e-01 1.54350e-01 -1.37640e-01 -1.48957e-01 -1.37640e-01 1.54350e-01 2.54867e-01
-16.14526 4.19965 48.06585 -1.47784e-01 1.36861e-01 -1.38017e-01 -1.47784e-01 -1.38017e-01 1.36861e-01 2.44171e-01
-12.11716 4.19184 48.06585 -1.47217e-01 1.40430e-01 -1.45518e-01 -1.47217e-01 -1.45518e-01 1.40430e-01 2.50138e-01
-8.11266 4.17210 48.06585 -1.54637e-01 1.53381e-01 -1.27189e-01 -1.54637e-01 -1.27189e-01 1.53381e-01 2.52221e-01
-4.08196 4.18744 48.06585 -1.59327e-01 1.60932e-01 -1.15220e-01 -1.59327e-01 -1.15220e-01 1.60932e-01 2.54087e-01
-0.08316 4.18938 48.06585 -1.65359e-01 1.30675e-01 -1.24805e-01 -1.65359e-01 -1.24805e-01 1.30675e-01 2.44940e-01
3.91416 4.18941 48.06585 -1.63261e-01 1.41881e-01 -1.20248e-01 -1.63261e-01 -1.20248e-01 1.41881e-01 2.47475e-01
7.92288 4.19757 48.06585 -1.50982e-01 1.22255e-01 -1.47549e-01 -1.50982e-01 -1.47549e-01 1.22255e-01 2.43952e-01
11.91600 4.21284 48.06585 -1.39880e-01 1.47185e-01 -1.48017e-01 -1.39880e-01 -1.48017e-01 1.47185e-01 2.51275e-01
15.93590 4.20062 48.06585 -1.41314e-01 1.16931e-01 -1.51629e-01 -1.41314e-01 -1.51629e-01 1.16931e-01 2.37978e-01
19.93430 4.19368 48.06585 -1.44799e-01 1.43602e-01 -1.39691e-01 -1.44799e-01 -1.39691e-01 1.43602e-01 2.47188e-01
-16.14816 0.17898 48.06585 -1.54743e-01 1.49363e-01 -1.36987e-01 -1.54743e-01 -1.36987e-01 1.49363e-01 2.54990e-01
-12.13526 0.17052 48.06585 -1.57441e-01 1.45524e-01 -1.44446e-01 -1.57441e-01 -1.44446e-01 1.45524e-01 2.58514e-01
-8.10126 0.17433 48.06585 -1.45222e-01 1.53030e-01 -1.41269e-01 -1.45222e-01 -1.41269e-01 1.53030e-01 2.53899e-01
-4.09166 0.18294 48.06585 -1.52234e-01 1.45713e-01 -1.15992e-01 -1.52234e-01 -1.15992e-01 1.45713e-01 2.40545e-01
-0.09486 0.18969 48.06585 -1.60932e-01 1.30306e-01 -1.28673e-01 -1.60932e-01 -1.28673e-01 1.30306e-01 2.43794e-01
3.92949 0.19258 48.06585 -1.60457e-01 1.30523e-01 -1.27461e-01 -1.60457e-01 -1.27461e-01 1.30523e-01 2.42959e-01
7.92586 0.17851 48.06585 -1.47314e-01 1.34892e-01 -1.48836e-01 -1.47314e-01 -1.48836e-01 1.34892e-01 2.49097e-01
11.91160 0.18956 48.06585 -1.51959e-01 1.33171e-01 -1.44667e-01 -1.51959e-01 -1.44667e-01 1.33171e-01 2.48504e-01
15.93630 0.18300 48.06585 -1.45805e-01 1.30352e-01 -1.46670e-01 -1.45805e-01 -1.46670e-01 1.30352e-01 2.44465e-01
19.94820 0.18352 48.06585 -1.53121e-01 1.46866e-01 -1.34511e-01 -1.53121e-01 -1.34511e-01 1.46866e-01 2.51215e-01
-16.16216 -3.82866 48.06585 -1.48571e-01 1.40591e-01 -1.32285e-01 -1.48571e-01 -1.32285e-01 1.40591e-01 2.43595e-01
-12.12996 -3.83306 48.06585 -1.52980e-01 1.55582e-01 -1.42040e-01 -1.52980e-01 -1.42040e-01 1.55582e-01 2.60354e-01
-8.11196 -3.83876 48.06585 -1.46019e-01 1.39301e-01 -1.43592e-01 -1.46019e-01 -1.43592e-01 1.39301e-01 2.47679e-01
-4.07616 -3.82816 48.06585 -1.53359e-01 1.36412e-01 -1.43008e-01 -1.53359e-01 -1.43008e-01 1.36412e-01 2.50156e-01
-0.07186 -3.82156 48.06585 -1.56656e-01 1.37500e-01 -1.37527e-01 -1.56656e-01 -1.37527e-01 1.37500e-01 2.49722e-01
3.92930 -3.81436 48.06585 -1.59063e-01 1.31640e-01 -1.39234e-01 -1.59063e-01 -1.39234e-01 1.31640e-01 2.49030e-01
7.91856 -3.82786 48.06585 -1.73364e-01 1.21422e-01 -1.39254e-01 -1.73364e-01 -1.39254e-01 1.21422e-01 2.53357e-01
11.92620 -3.82826 48.06585 -1.62164e-01 1.31185e-01 -1.41725e-01 -1.62164e-01 -1.41725e-01 1.31185e-01 2.52176e-01
15.93550 -3.83746 48.06585 -1.58207e-01 1.46124e-01 -1.33522e-01 -1.58207e-01 -1.33522e-01 1.46124e-01 2.53397e-01
19.93370 -3.84896 48.06585 -1.58455e-01 1.35993e-01 -1.37768e-01 -1.58455e-01 -1.37768e-01 1.35993e-01 2.50164e-01
-16.14496 -7.85576 48.06585 -1.51975e-01 1.38107e-01 -1.41112e-01 -1.51975e-01 -1.41112e-01 1.38107e-01 2.49164e-01
-12.11246 -7.83156 48.06585 -1.48092e-01 1.42861e-01 -1.42467e-01 -1.48092e-01 -1.42467e-01 1.42861e-01 2.50275e-01
-8.09326 -7.84286 48.06585 -1.41277e-01 1.52432e-01 -1.48495e-01 -1.41277e-01 -1.48495e-01 1.52432e-01 2.55432e-01
-4.07296 -7.84086 48.06585 -1.41934e-01 1.33448e-01 -1.53773e-01 -1.41934e-01 -1.53773e-01 1.33448e-01 2.48193e-01
-0.07866 -7.83986 48.06585 -1.41643e-01 1.40110e-01 -1.34126e-01 -1.41643e-01 -1.34126e-01 1.40110e-01 2.40174e-01
3.91880 -7.82596 48.06585 -1.45578e-01 1.29478e-01 -1.41099e-01 -1.45578e-01 -1.41099e-01 1.29478e-01 2.40554e-01
7.92666 -7.83336 48.06585 -1.41140e-01 1.36076e-01 -1.33233e-01 -1.41140e-01 -1.33233e-01 1.36076e-01 2.37041e-01
11.92460 -7.84916 48.06585 -1.41814e-01 1.13087e-01 -1.30642e-01 -1.41814e-01 -1.30642e-01 1.13087e-01 2.23533e-01
15.92830 -7.84396 48.06585 -1.55789e-01 1.30247e-01 -1.40824e-01 -1.55789e-01 -1.40824e-01 1.30247e-01 2.47116e-01
19.93430 -7.85056 48.06585 -1.43633e-01 1.54169e-01 -1.45317e-01 -1.43633e-01 -1.45317e-01 1.54169e-01 2.55960e-01
-16.14986 -11.88166 48.06585 -1.48595e-01 1.41335e-01 -1.56151e-01 -1.48595e-01 -1.56151e-01 1.41335e-01 2.57758e-01
-12.14746 -11.84286 48.06585 -1.51183e-01 1.33741e-01 -1.41436e-01 -1.51183e-01 -1.41436e-01 1.33741e-01 2.46469e-01
-8.10366 -11.85306 48.06585 -1.47479e-01 1.35859e-01 -1.48510e-01 -1.47479e-01 -1.48510e-01 1.35859e-01 2.49525e-01
-4.07956 -11.85466 48.06585 -1.60689e-01 1.37259e-01 -1.41043e-01 -1.60689e-01 -1.41043e-01 1.37259e-01 2.54075e-01
-0.07026 -11.85356 48.06585 -1.60800e-01 1.26134e-01 -1.20678e-01 -1.60800e-01 -1.20678e-01 1.26134e-01 2.37338e-01
3.92599 -11.85036 48.06585 -1.57471e-01 1.44983e-01 -1.33841e-01 -1.57471e-01 -1.33841e-01 1.44983e-01 2.52449e-01
7.90982 -11.84236 48.06585 -1.58197e-01 1.29308e-01 -1.32533e-01 -1.58197e-01 -1.32533e-01 1.29308e-01 2.43540e-01
11.91090 -11.84336 48.06585 -1.68728e-01 1.47462e-01 -1.27070e-01 -1.68728e-01 -1.27070e-01 1.47462e-01 2.57606e-01
15.91500 -11.85666 48.06585 -1.69652e-01 1.17902e-01 -1.40722e-01 -1.69652e-01 -1.40722e-01 1.17902e-01 2.49971e-01
19.93420 -11.85266 48.06585 -1.55080e-01 1.33059e-01 -1.42382e-01 -1.55080e-01 -1.42382e-01 1.33059e-01 2.49052e-01
-16.14006 -15.87946 48.06585 -1.37400e-01 1.47655e-01 -1.58964e-01 -1.37400e-01 -1.58964e-01 1.47655e-01 2.56808e-01
-12.12456 -15.86416 48.06585 -1.40847e-01 1.46530e-01 -1.42057e-01 -1.40847e-01 -1.42057e-01 1.46530e-01 2.47970e-01
-8.09556 -15.87076 48.06585 -1.38732e-01 1.59247e-01 -1.27921e-01 -1.38732e-01 -1.27921e-01 1.59247e-01 2.46921e-01
-4.06866 -15.88026 48.06585 -1.39142e-01 1.46331e-01 -1.36773e-01 -1.39142e-01 -1.36773e-01 1.46331e-01 2.43886e-01
-0.06106 -15.88276 48.06585 -1.45268e-01 1.53818e-01 -1.20138e-01 -1.45268e-01 -1.20138e-01 1.53818e-01 2.43302e-01
3.91955 -15.87126 48.06585 -1.48184e-01 1.53255e-01 -1.28835e-01 -1.48184e-01 -1.28835e-01 1.53255e-01 2.49086e-01
7.91987 -15.87766 48.06585 -1.50715e-01 1.34074e-01 -1.38712e-01 -1.50715e-01 -1.38712e-01 1.34074e-01 2.44810e-01
11.92270 -15.88836 48.06585 -1.57030e-01 1.26074e-01 -1.37189e-01 -1.57030e-01 -1.37189e-01 1.26074e-01 2.43668e-01
15.91820 -15.89486 48.06585 -1.58048e-01 1.25963e-01 -1.45133e-01 -1.58048e-01 -1.45133e-01 1.25963e-01 2.48816e-01
19.93580 -15.89476 48.06585 -1.45210e-01 1.16475e-01 -1.34462e-01 -1.45210e-01 -1.34462e-01 1.16475e-01 2.29635e-01
ZONE T="XZ_mid_T1.500_C48.066_TS20000", I=10, J=10, K=1, DATAPACKING=POINT, STRANDID=1, SOLUTIONTIME=20000.000000
-16.14096 20.28690 48.06585 -1.41803e-01 1.44542e-01 -1.46481e-01 -1.41803e-01 -1.46481e-01 1.44542e-01 2.49915e-01
-12.10836 20.29840 48.06585 -1.47652e-01 1.43478e-01 -1.57439e-01 -1.47652e-01 -1.57439e-01 1.43478e-01 2.59180e-01
-8.08816 20.30070 48.06585 -1.48347e-01 1.23527e-01 -1.59030e-01 -1.48347e-01 -1.59030e-01 1.23527e-01 2.50113e-01
-4.09016 20.28440 48.06585 -1.52936e-01 1.25855e-01 -1.53947e-01 -1.52936e-01 -1.53947e-01 1.25855e-01 2.50856e-01
-0.08596 20.26670 48.06585 -1.54545e-01 1.33793e-01 -1.48247e-01 -1.54545e-01 -1.48247e-01 1.33793e-01 2.52511e-01
3.91243 20.28110 48.06585 -1.45748e-01 1.47196e-01 -1.47808e-01 -1.45748e-01 -1.47808e-01 1.47196e-01 2.54472e-01
7.91778 20.25870 48.06585 -1.45267e-01 1.51594e-01 -1.40621e-01 -1.45267e-01 -1.40621e-01 1.51594e-01 2.52701e-01
11.91420 20.26860 48.06585 -1.39257e-01 1.40400e-01 -1.48657e-01 -1.39257e-01 -1.48657e-01 1.40400e-01 2.47393e-01
15.91340 20.25910 48.06585 -1.50376e-01 1.40049e-01 -1.34906e-01 -1.50376e-01 -1.34906e-01 1.40049e-01 2.45818e-01
19.93280 20.28660 48.06585 -1.49383e-01 1.35374e-01 -1.52730e-01 -1.49383e-01 -1.52730e-01 1.35374e-01 2.52918e-01
-16.11496 16.25600 48.06585 -1.38023e-01 1.26848e-01 -1.62786e-01 -1.38023e-01 -1.62786e-01 1.26848e-01 2.48274e-01
-12.10906 16.26350 48.06585 -1.40288e-01 1.61206e-01 -1.52243e-01 -1.40288e-01 -1.52243e-01 1.61206e-01 2.62385e-01
-8.10886 16.26580 48.06585 -1.35754e-01 1.17883e-01 -1.60318e-01 -1.35754e-01 -1.60318e-01 1.17883e-01 2.40889e-01
-4.08826 16.23380 48.06585 -1.41826e-01 1.26372e-01 -1.59744e-01 -1.41826e-01 -1.59744e-01 1.26372e-01 2.48199e-01
-0.07816 16.22090 48.06585 -1.44425e-01 1.22713e-01 -1.61002e-01 -1.44425e-01 -1.61002e-01 1.22713e-01 2.48674e-01
3.90948 16.22560 48.06585 -1.46275e-01 1.42423e-01 -1.54473e-01 -1.46275e-01 -1.54473e-01 1.42423e-01 2.56012e-01
7.89479 16.22920 48.06585 -1.51806e-01 1.46349e-01 -1.47098e-01 -1.51806e-01 -1.47098e-01 1.46349e-01 2.57101e-01
11.91980 16.22510 48.06585 -1.54376e-01 1.52684e-01 -1.44149e-01 -1.54376e-01 -1.44149e-01 1.52684e-01 2.60621e-01
15.92140 16.24200 48.06585 -1.55381e-01 1.38050e-01 -1.46212e-01 -1.55381e-01 -1.46212e-01 1.38050e-01 2.54124e-01
19.95050 16.27060 48.06585 -1.45082e-01 1.50089e-01 -1.41393e-01 -1.45082e-01 -1.41393e-01 1.50089e-01 2.52126e-01
-16.12676 12.23320 48.06585 -1.45166e-01 1.33025e-01 -1.70404e-01 -1.45166e-01 -1.70404e-01 1.33025e-01 2.60396e-01
-12.09876 12.22660 48.06585 -1.49207e-01 1.41691e-01 -1.50818e-01 -1.49207e-01 -1.50818e-01 1.41691e-01 2.55118e-01
-8.08696 12.22300 48.06585 -1.40665e-01 1.25213e-01 -1.61770e-01 -1.40665e-01 -1.61770e-01 1.25213e-01 2.48263e-01
-4.08776 12.20280 48.06585 -1.30811e-01 1.44064e-01 -1.68375e-01 -1.30811e-01 -1.68375e-01 1.44064e-01 2.57325e-01
-0.08506 12.20940 48.06585 -1.32342e-01 1.38397e-01 -1.69781e-01 -1.32342e-01 -1.69781e-01 1.38397e-01 2.55918e-01
3.90469 12.22410 48.06585 -1.38797e-01 1.33378e-01 -1.49109e-01 -1.38797e-01 -1.49109e-01 1.33378e-01 2.43491e-01
7.89501 12.21940 48.06585 -1.38262e-01 1.30350e-01 -1.69770e-01 -1.38262e-01 -1.69770e-01 1.30350e-01 2.54813e-01
11.89640 12.21680 48.06585 -1.40847e-01 1.40071e-01 -1.56127e-01 -1.40847e-01 -1.56127e-01 1.40071e-01 2.52653e-01
15.90790 12.23370 48.06585 -1.39448e-01 1.33153e-01 -1.50887e-01 -1.39448e-01 -1.50887e-01 1.33153e-01 2.44832e-01
19.94650 12.22380 48.06585 -1.48149e-01 1.26451e-01 -1.55312e-01 -1.48149e-01 -1.55312e-01 1.26451e-01 2.49118e-01
-16.15166 8.22127 48.06585 -1.45007e-01 1.29753e-01 -1.68642e-01 -1.45007e-01 -1.68642e-01 1.29753e-01 2.57493e-01
-12.12066 8.19538 48.06585 -1.40232e-01 1.49305e-01 -1.56153e-01 -1.40232e-01 -1.56153e-01 1.49305e-01 2.57567e-01
-8.10256 8.18880 48.06585 -1.37649e-01 1.33467e-01 -1.61749e-01 -1.37649e-01 -1.61749e-01 1.33467e-01 2.50845e-01
-4.10486 8.18497 48.06585 -1.40997e-01 1.30072e-01 -1.70101e-01 -1.40997e-01 -1.70101e-01 1.30072e-01 2.56385e-01
-0.08816 8.19511 48.06585 -1.50643e-01 1.16210e-01 -1.63838e-01 -1.50643e-01 -1.63838e-01 1.16210e-01 2.51079e-01
3.90715 8.19777 48.06585 -1.58120e-01 1.33074e-01 -1.52037e-01 -1.58120e-01 -1.52037e-01 1.33074e-01 2.56566e-01
7.91543 8.20275 48.06585 -1.57533e-01 1.30621e-01 -1.53534e-01 -1.57533e-01 -1.53534e-01 1.30621e-01 2.55834e-01
11.91370 8.20975 48.06585 -1.45269e-01 1.19747e-01 -1.52543e-01 -1.45269e-01 -1.52543e-01 1.19747e-01 2.42305e-01
15.92950 8.21590 48.06585 -1.36787e-01 1.21693e-01 -1.63884e-01 -1.36787e-01 -1.63884e-01 1.21693e-01 2.45719e-01
19.94150 8.21099 48.06585 -1.34321e-01 1.27092e-01 -1.66794e-01 -1.34321e-01 -1.66794e-01 1.27092e-01 2.49028e-01
-16.14526 4.19965 48.06585 -1.48940e-01 1.09848e-01 -1.63782e-01 -1.48940e-01 -1.63782e-01 1.09848e-01 2.47132e-01
-12.11716 4.19184 48.06585 -1.47437e-01 1.29713e-01 -1.48862e-01 -1.47437e-01 -1.48862e-01 1.29713e-01 2.46420e-01
-8.11266 4.17210 48.06585 -1.46597e-01 1.39307e-01 -1.54595e-01 -1.46597e-01 -1.54595e-01 1.39307e-01 2.54552e-01
-4.08196 4.18744 48.06585 -1.51796e-01 1.35875e-01 -1.68617e-01 -1.51796e-01 -1.68617e-01 1.35875e-01 2.64453e-01
-0.08316 4.18938 48.06585 -1.42151e-01 1.34929e-01 -1.61345e-01 -1.42151e-01 -1.61345e-01 1.34929e-01 2.53860e-01
3.91416 4.18941 48.06585 -1.34992e-01 1.37935e-01 -1.56324e-01 -1.34992e-01 -1.56324e-01 1.37935e-01 2.48367e-01
7.92288 4.19757 48.06585 -1.42441e-01 1.41975e-01 -1.44034e-01 -1.42441e-01 -1.44034e-01 1.41975e-01 2.47370e-01
11.91600 4.21284 48.06585 -1.48681e-01 1.51619e-01 -1.38590e-01 -1.48681e-01 -1.38590e-01 1.51619e-01 2.53578e-01
15.93590 4.20062 48.06585 -1.51056e-01 1.40973e-01 -1.61515e-01 -1.51056e-01 -1.61515e-01 1.40973e-01 2.62256e-01
19.93430 4.19368 48.06585 -1.48485e-01 1.35630e-01 -1.56106e-01 -1.48485e-01 -1.56106e-01 1.35630e-01 2.54582e-01
-16.14816 0.17898 48.06585 -1.55503e-01 1.47430e-01 -1.51054e-01 -1.55503e-01 -1.51054e-01 1.47430e-01 2.62172e-01
-12.13526 0.17052 48.06585 -1.51897e-01 1.51678e-01 -1.52430e-01 -1.51897e-01 -1.52430e-01 1.51678e-01 2.63275e-01
-8.10126 0.17433 48.06585 -1.48427e-01 1.42401e-01 -1.53224e-01 -1.48427e-01 -1.53224e-01 1.42401e-01 2.56488e-01
-4.09166 0.18294 48.06585 -1.46383e-01 1.36608e-01 -1.63961e-01 -1.46383e-01 -1.63961e-01 1.36608e-01 2.58791e-01
-0.09486 0.18969 48.06585 -1.50767e-01 1.38680e-01 -1.55759e-01 -1.50767e-01 -1.55759e-01 1.38680e-01 2.57340e-01
3.92949 0.19258 48.06585 -1.47255e-01 1.48119e-01 -1.65704e-01 -1.47255e-01 -1.65704e-01 1.48119e-01 2.66610e-01
7.92586 0.17851 48.06585 -1.45984e-01 1.52031e-01 -1.46448e-01 -1.45984e-01 -1.46448e-01 1.52031e-01 2.56655e-01