VARIABLES= "X" "Z" "Ysec" "Px" "Py" "Pz" "U" "V" "W" "Pmag"
ZONE T="XZ_mid_T1.500_C46.005_TS0", I=10, J=10, K=1, DATAPACKING=POINT, STRANDID=1, SOLUTIONTIME=0.000000
22.10150 22.08590 46.00503 1.26112e-01 -1.49765e-01 1.16847e-01 1.26112e-01 1.16847e-01 -1.49765e-01 2.28007e-01
18.06930 22.09160 46.00503 1.11534e-01 1.24428e-01 1.33637e-01 1.11534e-01 1.33637e-01 1.24428e-01 2.13965e-01
14.04550 21.91060 46.00503 1.11127e-01 1.49617e-01 -1.25267e-01 1.11127e-01 -1.25267e-01 1.49617e-01 2.24558e-01
10.06300 21.93560 46.00503 1.26807e-01 1.40200e-01 -1.34632e-01 1.26807e-01 -1.34632e-01 1.40200e-01 2.32081e-01
6.05377 22.11360 46.00503 1.33608e-01 1.13193e-01 1.29730e-01 1.33608e-01 1.29730e-01 1.13193e-01 2.17931e-01
2.04335 22.11870 46.00503 1.25611e-01 1.29655e-01 1.54192e-01 1.25611e-01 1.54192e-01 1.29655e-01 2.37410e-01
-1.96048 22.11830 46.00503 1.13050e-01 1.41106e-01 1.46049e-01 1.13050e-01 1.46049e-01 1.41106e-01 2.32425e-01
-5.97758 22.12540 46.00503 1.13764e-01 1.15136e-01 1.30812e-01 1.13764e-01 1.30812e-01 1.15136e-01 2.08112e-01
-9.98478 21.94650 46.00503 1.08934e-01 -1.22738e-01 -1.45535e-01 1.08934e-01 -1.45535e-01 -1.22738e-01 2.19344e-01
-13.97528 21.93100 46.00503 1.17431e-01 -1.33670e-01 -1.51104e-01 1.17431e-01 -1.51104e-01 -1.33670e-01 2.33431e-01
22.08220 18.07210 46.00503 1.29390e-01 -1.43156e-01 1.16298e-01 1.29390e-01 1.16298e-01 -1.43156e-01 2.25301e-01
18.07050 18.08930 46.00503 1.23481e-01 -1.20397e-01 1.39758e-01 1.23481e-01 1.39758e-01 -1.20397e-01 2.21980e-01
14.07150 17.91260 46.00503 1.34046e-01 1.37904e-01 -1.30952e-01 1.34046e-01 -1.30952e-01 1.37904e-01 2.32668e-01
10.07780 17.92200 46.00503 1.46359e-01 1.02371e-01 -1.41905e-01 1.46359e-01 -1.41905e-01 1.02371e-01 2.28117e-01
6.04455 18.09380 46.00503 1.32018e-01 -1.29889e-01 1.38040e-01 1.32018e-01 1.38040e-01 -1.29889e-01 2.30987e-01
2.01524 18.09860 46.00503 1.18192e-01 -9.20790e-02 1.56555e-01 1.18192e-01 1.56555e-01 -9.20790e-02 2.16696e-01
-1.96698 18.10090 46.00503 1.24982e-01 1.24014e-01 1.35838e-01 1.24982e-01 1.35838e-01 1.24014e-01 2.22378e-01
-5.97738 18.09760 46.00503 1.29958e-01 1.32107e-01 1.12621e-01 1.29958e-01 1.12621e-01 1.32107e-01 2.16852e-01
-9.95888 17.92970 46.00503 1.32021e-01 -1.35617e-01 -1.46025e-01 1.32021e-01 -1.46025e-01 -1.35617e-01 2.39050e-01
-13.96438 17.92480 46.00503 1.27328e-01 -1.45063e-01 -1.50697e-01 1.27328e-01 -1.50697e-01 -1.45063e-01 2.44878e-01
21.92300 14.04850 46.00503 -1.38352e-01 -1.19359e-01 1.03921e-01 -1.38352e-01 1.03921e-01 -1.19359e-01 2.10208e-01
17.90690 14.07310 46.00503 -1.33750e-01 -1.03057e-01 1.37683e-01 -1.33750e-01 1.37683e-01 -1.03057e-01 2.17868e-01
13.90030 13.89200 46.00503 -1.31864e-01 1.34838e-01 -1.42197e-01 -1.31864e-01 -1.42197e-01 1.34838e-01 2.36198e-01
9.89486 13.90440 46.00503 -1.35963e-01 1.13703e-01 -1.38131e-01 -1.35963e-01 -1.38131e-01 1.13703e-01 2.24710e-01
5.89613 14.08150 46.00503 -1.23636e-01 -1.14281e-01 1.44801e-01 -1.23636e-01 1.44801e-01 -1.14281e-01 2.22066e-01
1.87799 14.08180 46.00503 -1.18633e-01 -1.34796e-01 1.46449e-01 -1.18633e-01 1.46449e-01 -1.34796e-01 2.31714e-01
-2.11248 14.06580 46.00503 -1.29691e-01 -1.36746e-01 1.28458e-01 -1.29691e-01 1.28458e-01 -1.36746e-01 2.28080e-01
-6.12548 14.07400 46.00503 -1.38618e-01 -1.25106e-01 1.07910e-01 -1.38618e-01 1.07910e-01 -1.25106e-01 2.15664e-01
-10.11728 13.91880 46.00503 -1.24575e-01 -1.18768e-01 -1.50423e-01 -1.24575e-01 -1.50423e-01 -1.18768e-01 2.28587e-01
-14.14078 13.91000 46.00503 -1.38726e-01 -1.15363e-01 -1.53751e-01 -1.38726e-01 -1.53751e-01 -1.15363e-01 2.37051e-01
21.91670 10.04250 46.00503 -1.54237e-01 1.45996e-01 1.08831e-01 -1.54237e-01 1.08831e-01 1.45996e-01 2.38639e-01
17.91360 10.05170 46.00503 -1.52444e-01 1.47083e-01 1.28547e-01 -1.52444e-01 1.28547e-01 1.47083e-01 2.47784e-01
13.91260 9.87527 46.00503 -1.42741e-01 1.36008e-01 -1.45261e-01 -1.42741e-01 -1.45261e-01 1.36008e-01 2.44896e-01
9.89838 9.88068 46.00503 -1.54525e-01 1.16967e-01 -1.37934e-01 -1.54525e-01 -1.37934e-01 1.16967e-01 2.37876e-01
5.88462 10.03670 46.00503 -1.52027e-01 9.73950e-02 1.30129e-01 -1.52027e-01 1.30129e-01 9.73950e-02 2.22556e-01
1.88349 10.06270 46.00503 -1.35811e-01 -1.33478e-01 1.48880e-01 -1.35811e-01 1.48880e-01 -1.33478e-01 2.41715e-01
-2.09838 10.05530 46.00503 -1.46570e-01 -1.20442e-01 1.39218e-01 -1.46570e-01 1.39218e-01 -1.20442e-01 2.35310e-01
-6.12808 10.06350 46.00503 -1.59218e-01 9.20298e-02 1.11023e-01 -1.59218e-01 1.11023e-01 9.20298e-02 2.14816e-01
-10.15188 9.91155 46.00503 -1.51355e-01 1.24847e-01 -1.40904e-01 -1.51355e-01 -1.40904e-01 1.24847e-01 2.41556e-01
-14.15428 9.88206 46.00503 -1.49596e-01 1.14110e-01 -1.59382e-01 -1.49596e-01 -1.59382e-01 1.14110e-01 2.46582e-01
21.91400 6.03855 46.00503 -1.51527e-01 1.51646e-01 1.30952e-01 -1.51527e-01 1.30952e-01 1.51646e-01 2.51208e-01
17.91510 6.01839 46.00503 -1.53110e-01 1.47697e-01 1.18325e-01 -1.53110e-01 1.18325e-01 1.47697e-01 2.43430e-01
13.89890 5.86456 46.00503 -1.64563e-01 1.05657e-01 -1.43397e-01 -1.64563e-01 -1.43397e-01 1.05657e-01 2.42502e-01
9.86963 5.85848 46.00503 -1.59809e-01 -1.13130e-01 -1.42756e-01 -1.59809e-01 -1.42756e-01 -1.13130e-01 2.42316e-01
5.87227 6.01629 46.00503 -1.50097e-01 -1.44138e-01 1.18054e-01 -1.50097e-01 1.18054e-01 -1.44138e-01 2.39252e-01
1.88584 6.04071 46.00503 -1.48927e-01 -1.35146e-01 1.48575e-01 -1.48927e-01 1.48575e-01 -1.35146e-01 2.50037e-01
-2.10628 6.02488 46.00503 -1.51535e-01 -1.26918e-01 1.35833e-01 -1.51535e-01 1.35833e-01 -1.26918e-01 2.39837e-01
-6.12608 6.05172 46.00503 -1.66960e-01 1.08497e-01 1.23610e-01 -1.66960e-01 1.23610e-01 1.08497e-01 2.34364e-01
-10.16538 5.91790 46.00503 -1.73175e-01 1.40839e-01 -1.33071e-01 -1.73175e-01 -1.33071e-01 1.40839e-01 2.59871e-01
-14.16198 5.87150 46.00503 -1.57354e-01 1.46013e-01 -1.51318e-01 -1.57354e-01 -1.51318e-01 1.46013e-01 2.62635e-01
21.90420 2.00030 46.00503 -1.59391e-01 1.52032e-01 1.25437e-01 -1.59391e-01 1.25437e-01 1.52032e-01 2.53483e-01
17.90810 1.99069 46.00503 -1.53834e-01 1.50648e-01 1.19535e-01 -1.53834e-01 1.19535e-01 1.50648e-01 2.46269e-01
13.88650 1.83953 46.00503 -1.67666e-01 -9.09602e-02 -1.44572e-01 -1.67666e-01 -1.44572e-01 -9.09602e-02 2.39346e-01
9.87525 1.83855 46.00503 -1.62205e-01 -1.44718e-01 -1.46009e-01 -1.62205e-01 -1.46009e-01 -1.44718e-01 2.61864e-01
5.87388 1.99987 46.00503 -1.42483e-01 -1.49917e-01 1.24102e-01 -1.42483e-01 1.24102e-01 -1.49917e-01 2.41201e-01
1.88458 2.00863 46.00503 -1.43957e-01 -1.25831e-01 1.40332e-01 -1.43957e-01 1.40332e-01 -1.25831e-01 2.37171e-01
-2.12168 2.02146 46.00503 -1.61078e-01 -8.26052e-02 1.39564e-01 -1.61078e-01 1.39564e-01 -8.26052e-02 2.28578e-01
-6.15108 2.03825 46.00503 -1.70166e-01 1.27787e-01 1.17842e-01 -1.70166e-01 1.17842e-01 1.27787e-01 2.43254e-01
-10.16238 1.88867 46.00503 -1.56936e-01 1.32585e-01 -1.34597e-01 -1.56936e-01 -1.34597e-01 1.32585e-01 2.45610e-01
-14.16188 1.84682 46.00503 -1.52661e-01 1.49655e-01 -1.45009e-01 -1.52661e-01 -1.45009e-01 1.49655e-01 2.58321e-01
21.90400 -2.01539 46.00503 -1.52398e-01 1.59573e-01 1.13947e-01 -1.52398e-01 1.13947e-01 1.59573e-01 2.48340e-01
17.89260 -2.00779 46.00503 -1.58293e-01 1.31433e-01 1.15439e-01 -1.58293e-01 1.15439e-01 1.31433e-01 2.35919e-01
13.90830 -2.17029 46.00503 -1.46768e-01 -1.08473e-01 -1.43703e-01 -1.46768e-01 -1.43703e-01 -1.08473e-01 2.32288e-01
9.90963 -2.18889 46.00503 -1.48009e-01 -1.34391e-01 -1.49431e-01 -1.48009e-01 -1.49431e-01 -1.34391e-01 2.49594e-01
5.87509 -2.00769 46.00503 -1.63404e-01 -1.47582e-01 1.41656e-01 -1.63404e-01 1.41656e-01 -1.47582e-01 2.61817e-01
1.85984 -2.00089 46.00503 -1.66268e-01 -1.08820e-01 1.45736e-01 -1.66268e-01 1.45736e-01 -1.08820e-01 2.46426e-01
-2.12998 -1.97889 46.00503 -1.66624e-01 1.25760e-01 1.40603e-01 -1.66624e-01 1.40603e-01 1.25760e-01 2.51691e-01
-6.14378 -1.98929 46.00503 -1.68546e-01 1.44306e-01 1.04818e-01 -1.68546e-01 1.04818e-01 1.44306e-01 2.45395e-01
-10.15988 -2.12649 46.00503 -1.55720e-01 1.38679e-01 -1.33339e-01 -1.55720e-01 -1.33339e-01 1.38679e-01 2.47507e-01
-14.16878 -2.16629 46.00503 -1.50285e-01 1.50846e-01 -1.41670e-01 -1.50285e-01 -1.41670e-01 1.50846e-01 2.55755e-01
21.89560 -6.04619 46.00503 -1.51652e-01 1.43648e-01 1.04033e-01 -1.51652e-01 1.04033e-01 1.43648e-01 2.33358e-01
17.90750 -6.02499 46.00503 -1.52172e-01 1.50890e-01 1.20346e-01 -1.52172e-01 1.20346e-01 1.50890e-01 2.45779e-01
13.90500 -6.20089 46.00503 -1.64929e-01 1.19613e-01 -1.45205e-01 -1.64929e-01 -1.45205e-01 1.19613e-01 2.50187e-01
9.90445 -6.20149 46.00503 -1.56797e-01 -1.15759e-01 -1.45316e-01 -1.56797e-01 -1.45316e-01 -1.15759e-01 2.43109e-01
5.89823 -6.01449 46.00503 -1.41366e-01 -1.52196e-01 1.41187e-01 -1.41366e-01 1.41187e-01 -1.52196e-01 2.51161e-01
1.87367 -6.01879 46.00503 -1.50411e-01 -7.63639e-02 1.41140e-01 -1.50411e-01 1.41140e-01 -7.63639e-02 2.19944e-01
-2.13008 -6.01069 46.00503 -1.59909e-01 1.33435e-01 1.33551e-01 -1.59909e-01 1.33551e-01 1.33435e-01 2.47410e-01
-6.15428 -5.99189 46.00503 -1.65310e-01 1.34813e-01 1.17027e-01 -1.65310e-01 1.17027e-01 1.34813e-01 2.43304e-01
-10.16558 -6.15239 46.00503 -1.63362e-01 1.29952e-01 -1.45460e-01 -1.63362e-01 -1.45460e-01 1.29952e-01 2.54428e-01
-14.17148 -6.19449 46.00503 -1.53189e-01 1.30029e-01 -1.56246e-01 -1.53189e-01 -1.56246e-01 1.30029e-01 2.54533e-01
21.89740 -10.04879 46.00503 -1.69082e-01 1.08053e-01 1.13416e-01 -1.69082e-01 1.13416e-01 1.08053e-01 2.30494e-01
17.90980 -10.03939 46.00503 -1.59053e-01 1.48223e-01 1.28574e-01 -1.59053e-01 1.28574e-01 1.48223e-01 2.52585e-01
13.90760 -10.19159 46.00503 -1.60373e-01 1.41968e-01 -1.14644e-01 -1.60373e-01 -1.14644e-01 1.41968e-01 2.42935e-01
9.89430 -10.21909 46.00503 -1.53568e-01 1.11311e-01 -1.51457e-01 -1.53568e-01 -1.51457e-01 1.11311e-01 2.42719e-01
5.88502 -10.02949 46.00503 -1.59640e-01 -1.40104e-01 1.37379e-01 -1.59640e-01 1.37379e-01 -1.40104e-01 2.52957e-01
1.87217 -10.01029 46.00503 -1.67105e-01 1.10064e-01 1.41027e-01 -1.67105e-01 1.41027e-01 1.10064e-01 2.44799e-01
-2.13378 -10.01109 46.00503 -1.64109e-01 1.50679e-01 1.33277e-01 -1.64109e-01 1.33277e-01 1.50679e-01 2.59612e-01
-6.15208 -9.97419 46.00503 -1.60360e-01 1.26928e-01 1.42541e-01 -1.60360e-01 1.42541e-01 1.26928e-01 2.49287e-01
-10.15068 -10.17489 46.00503 -1.51131e-01 -8.39119e-02 -1.52224e-01 -1.51131e-01 -1.52224e-01 -8.39119e-02 2.30334e-01
-14.16158 -10.21609 46.00503 -1.67171e-01 -9.56740e-02 -1.54515e-01 -1.67171e-01 -1.54515e-01 -9.56740e-02 2.46930e-01
21.92060 -14.06719 46.00503 -1.53135e-01 -1.34761e-01 1.16591e-01 -1.53135e-01 1.16591e-01 -1.34761e-01 2.34956e-01
17.91400 -14.05139 46.00503 -1.49400e-01 1.35741e-01 1.34231e-01 -1.49400e-01 1.34231e-01 1.35741e-01 2.42413e-01
13.89230 -14.21009 46.00503 -1.44786e-01 1.53508e-01 -1.09717e-01 -1.44786e-01 -1.09717e-01 1.53508e-01 2.37835e-01
9.89270 -14.21889 46.00503 -1.45061e-01 1.20124e-01 -1.39782e-01 -1.45061e-01 -1.39782e-01 1.20124e-01 2.34545e-01
5.88705 -14.03579 46.00503 -1.42307e-01 -1.05193e-01 1.31460e-01 -1.42307e-01 1.31460e-01 -1.05193e-01 2.20451e-01
1.89188 -14.02379 46.00503 -1.35035e-01 1.36134e-01 1.44028e-01 -1.35035e-01 1.44028e-01 1.36134e-01 2.39814e-01
-2.11478 -14.01639 46.00503 -1.39984e-01 1.54194e-01 1.35494e-01 -1.39984e-01 1.35494e-01 1.54194e-01 2.48455e-01
-6.13508 -14.00519 46.00503 -1.48139e-01 1.24738e-01 1.41379e-01 -1.48139e-01 1.41379e-01 1.24738e-01 2.39777e-01
-10.15218 -14.18499 46.00503 -1.53508e-01 -1.04543e-01 -1.45557e-01 -1.53508e-01 -1.45557e-01 -1.04543e-01 2.35968e-01
-14.15798 -14.20929 46.00503 -1.53204e-01 -1.33860e-01 -1.41298e-01 -1.53204e-01 -1.41298e-01 -1.33860e-01 2.47700e-01
ZONE T="XZ_mid_T1.500_C46.005_TS10000", I=10, J=10, K=1, DATAPACKING=POINT, STRANDID=1, SOLUTIONTIME=10000.000000
22.10150 22.08590 46.00503 1.19680e-01 -1.49830e-01 1.20083e-01 1.19680e-01 1.20083e-01 -1.49830e-01 2.26257e-01
18.06930 22.09160 46.00503 1.25119e-01 1.18319e-01 1.33317e-01 1.25119e-01 1.33317e-01 1.18319e-01 2.17778e-01
14.04550 21.91060 46.00503 1.18253e-01 1.40002e-01 -1.33996e-01 1.18253e-01 -1.33996e-01 1.40002e-01 2.27023e-01
10.06300 21.93560 46.00503 1.14452e-01 1.55079e-01 -1.30467e-01 1.14452e-01 -1.30467e-01 1.55079e-01 2.32746e-01
6.05377 22.11360 46.00503 1.02090e-01 1.28048e-01 1.43856e-01 1.02090e-01 1.43856e-01 1.28048e-01 2.17975e-01
2.04335 22.11870 46.00503 9.81423e-02 1.31847e-01 1.46171e-01 9.81423e-02 1.46171e-01 1.31847e-01 2.19958e-01
-1.96048 22.11830 46.00503 1.01690e-01 1.51103e-01 1.45182e-01 1.01690e-01 1.45182e-01 1.51103e-01 2.32918e-01
-5.97758 22.12540 46.00503 1.00014e-01 1.35818e-01 1.36013e-01 1.00014e-01 1.36013e-01 1.35818e-01 2.16677e-01
-9.98478 21.94650 46.00503 9.18735e-02 -1.39110e-01 -1.34901e-01 9.18735e-02 -1.34901e-01 -1.39110e-01 2.14454e-01
-13.97528 21.93100 46.00503 9.14991e-02 -1.48912e-01 -1.42362e-01 9.14991e-02 -1.42362e-01 -1.48912e-01 2.25419e-01
22.08220 18.07210 46.00503 1.14639e-01 -1.56723e-01 1.07085e-01 1.14639e-01 1.07085e-01 -1.56723e-01 2.21747e-01
18.07050 18.08930 46.00503 1.17601e-01 -1.12687e-01 1.37758e-01 1.17601e-01 1.37758e-01 -1.12687e-01 2.13320e-01
14.07150 17.91260 46.00503 1.24972e-01 1.31811e-01 -1.34380e-01 1.24972e-01 -1.34380e-01 1.31811e-01 2.25943e-01
10.07780 17.92200 46.00503 1.29753e-01 1.34693e-01 -1.32522e-01 1.29753e-01 -1.32522e-01 1.34693e-01 2.29216e-01
6.04455 18.09380 46.00503 1.21098e-01 -1.01802e-01 1.55362e-01 1.21098e-01 1.55362e-01 -1.01802e-01 2.21733e-01
2.01524 18.09860 46.00503 1.17246e-01 -1.19797e-01 1.43256e-01 1.17246e-01 1.43256e-01 -1.19797e-01 2.20500e-01
-1.96698 18.10090 46.00503 1.04939e-01 1.40274e-01 1.39845e-01 1.04939e-01 1.39845e-01 1.40274e-01 2.24155e-01
-5.97738 18.09760 46.00503 1.07444e-01 1.29649e-01 1.28533e-01 1.07444e-01 1.28533e-01 1.29649e-01 2.11834e-01
-9.95888 17.92970 46.00503 1.20750e-01 -1.27692e-01 -1.39984e-01 1.20750e-01 -1.39984e-01 -1.27692e-01 2.24681e-01
-13.96438 17.92480 46.00503 1.15816e-01 -1.59267e-01 -1.46262e-01 1.15816e-01 -1.46262e-01 -1.59267e-01 2.45299e-01
21.92300 14.04850 46.00503 -1.39763e-01 -1.53037e-01 1.01080e-01 -1.39763e-01 1.01080e-01 -1.53037e-01 2.30589e-01
17.90690 14.07310 46.00503 -1.43303e-01 -1.23310e-01 1.40663e-01 -1.43303e-01 1.40663e-01 -1.23310e-01 2.35642e-01
13.90030 13.89200 46.00503 -1.34526e-01 1.41805e-01 -1.37826e-01 -1.34526e-01 -1.37826e-01 1.41805e-01 2.39169e-01
9.89486 13.90440 46.00503 -1.32711e-01 1.18621e-01 -1.38665e-01 -1.32711e-01 -1.38665e-01 1.18621e-01 2.25635e-01
5.89613 14.08150 46.00503 -1.37262e-01 -1.13310e-01 1.47794e-01 -1.37262e-01 1.47794e-01 -1.13310e-01 2.31351e-01
1.87799 14.08180 46.00503 -1.19307e-01 -1.51297e-01 1.54510e-01 -1.19307e-01 1.54510e-01 -1.51297e-01 2.46979e-01
-2.11248 14.06580 46.00503 -1.28950e-01 -1.46395e-01 1.55080e-01 -1.28950e-01 1.55080e-01 -1.46395e-01 2.49218e-01
-6.12548 14.07400 46.00503 -1.37470e-01 -1.24190e-01 1.10726e-01 -1.37470e-01 1.10726e-01 -1.24190e-01 2.15827e-01
-10.11728 13.91880 46.00503 -1.24169e-01 -1.21861e-01 -1.38091e-01 -1.24169e-01 -1.38091e-01 -1.21861e-01 2.22120e-01
-14.14078 13.91000 46.00503 -1.30815e-01 -1.51812e-01 -1.62470e-01 -1.30815e-01 -1.62470e-01 -1.51812e-01 2.57984e-01
21.91670 10.04250 46.00503 -1.54899e-01 1.20966e-01 9.94727e-02 -1.54899e-01 9.94727e-02 1.20966e-01 2.20275e-01
17.91360 10.05170 46.00503 -1.62674e-01 1.25234e-01 1.28425e-01 -1.62674e-01 1.28425e-01 1.25234e-01 2.42155e-01
13.91260 9.87527 46.00503 -1.56870e-01 1.43196e-01 -1.46163e-01 -1.56870e-01 -1.46163e-01 1.43196e-01 2.57831e-01
9.89838 9.88068 46.00503 -1.57277e-01 1.17917e-01 -1.28928e-01 -1.57277e-01 -1.28928e-01 1.17917e-01 2.35080e-01
5.88462 10.03670 46.00503 -1.45254e-01 9.23708e-02 1.33178e-01 -1.45254e-01 1.33178e-01 9.23708e-02 2.17641e-01
1.88349 10.06270 46.00503 -1.39881e-01 -1.12057e-01 1.47302e-01 -1.39881e-01 1.47302e-01 -1.12057e-01 2.31994e-01
-2.09838 10.05530 46.00503 -1.52265e-01 -1.40895e-01 1.41756e-01 -1.52265e-01 1.41756e-01 -1.40895e-01 2.51258e-01
-6.12808 10.06350 46.00503 -1.62374e-01 -6.42097e-02 1.12209e-01 -1.62374e-01 1.12209e-01 -6.42097e-02 2.07555e-01
-10.15188 9.91155 46.00503 -1.61502e-01 1.33974e-01 -1.40038e-01 -1.61502e-01 -1.40038e-01 1.33974e-01 2.52275e-01
-14.15428 9.88206 46.00503 -1.55685e-01 1.15926e-01 -1.56236e-01 -1.55685e-01 -1.56236e-01 1.15926e-01 2.49171e-01
21.91400 6.03855 46.00503 -1.41816e-01 1.59995e-01 1.08278e-01 -1.41816e-01 1.08278e-01 1.59995e-01 2.39654e-01
17.91510 6.01839 46.00503 -1.45725e-01 1.29882e-01 1.33216e-01 -1.45725e-01 1.33216e-01 1.29882e-01 2.36330e-01
13.89890 5.86456 46.00503 -1.69968e-01 1.01924e-01 -1.39477e-01 -1.69968e-01 -1.39477e-01 1.01924e-01 2.42345e-01
9.86963 5.85848 46.00503 -1.72373e-01 -1.00183e-01 -1.42117e-01 -1.72373e-01 -1.42117e-01 -1.00183e-01 2.44840e-01
5.87227 6.01629 46.00503 -1.58312e-01 -1.35661e-01 1.20009e-01 -1.58312e-01 1.20009e-01 -1.35661e-01 2.40560e-01
1.88584 6.04071 46.00503 -1.44499e-01 -1.34232e-01 1.38627e-01 -1.44499e-01 1.38627e-01 -1.34232e-01 2.41072e-01
-2.10628 6.02488 46.00503 -1.55775e-01 -1.17576e-01 1.45025e-01 -1.55775e-01 1.45025e-01 -1.17576e-01 2.43151e-01
-6.12608 6.05172 46.00503 -1.71723e-01 1.18926e-01 1.22327e-01 -1.71723e-01 1.22327e-01 1.18926e-01 2.42067e-01
-10.16538 5.91790 46.00503 -1.62203e-01 1.48002e-01 -1.34946e-01 -1.62203e-01 -1.34946e-01 1.48002e-01 2.57730e-01
-14.16198 5.87150 46.00503 -1.53097e-01 1.30501e-01 -1.52192e-01 -1.53097e-01 -1.52192e-01 1.30501e-01 2.52253e-01
21.90420 2.00030 46.00503 -1.54297e-01 1.56651e-01 1.05782e-01 -1.54297e-01 1.05782e-01 1.56651e-01 2.44001e-01
17.90810 1.99069 46.00503 -1.61062e-01 1.38780e-01 1.38244e-01 -1.61062e-01 1.38244e-01 1.38780e-01 2.53599e-01
13.88650 1.83953 46.00503 -1.61138e-01 -1.19020e-01 -1.28408e-01 -1.61138e-01 -1.28408e-01 -1.19020e-01 2.37950e-01
9.87525 1.83855 46.00503 -1.61029e-01 -1.22037e-01 -1.42587e-01 -1.61029e-01 -1.42587e-01 -1.22037e-01 2.47294e-01
5.87388 1.99987 46.00503 -1.55592e-01 -1.40262e-01 1.12547e-01 -1.55592e-01 1.12547e-01 -1.40262e-01 2.37801e-01
1.88458 2.00863 46.00503 -1.47328e-01 -1.30775e-01 1.30080e-01 -1.47328e-01 1.30080e-01 -1.30775e-01 2.36069e-01
-2.12168 2.02146 46.00503 -1.70810e-01 -6.30469e-02 1.45053e-01 -1.70810e-01 1.45053e-01 -6.30469e-02 2.32791e-01
-6.15108 2.03825 46.00503 -1.94333e-01 1.26826e-01 1.11240e-01 -1.94333e-01 1.11240e-01 1.26826e-01 2.57341e-01
-10.16238 1.88867 46.00503 -1.67507e-01 1.40206e-01 -1.40410e-01 -1.67507e-01 -1.40410e-01 1.40206e-01 2.59675e-01
-14.16188 1.84682 46.00503 -1.56329e-01 1.55451e-01 -1.41376e-01 -1.56329e-01 -1.41376e-01 1.55451e-01 2.61899e-01
21.90400 -2.01539 46.00503 -1.71883e-01 1.63942e-01 1.00301e-01 -1.71883e-01 1.00301e-01 1.63942e-01 2.57839e-01
17.89260 -2.00779 46.00503 -1.57955e-01 1.38757e-01 1.36966e-01 -1.57955e-01 1.36966e-01 1.38757e-01 2.50924e-01
13.90830 -2.17029 46.00503 -1.36709e-01 -1.10989e-01 -1.37321e-01 -1.36709e-01 -1.37321e-01 -1.10989e-01 2.23305e-01
9.90963 -2.18889 46.00503 -1.35735e-01 -1.34376e-01 -1.49589e-01 -1.35735e-01 -1.49589e-01 -1.34376e-01 2.42606e-01
5.87509 -2.00769 46.00503 -1.52827e-01 -1.47798e-01 1.14260e-01 -1.52827e-01 1.14260e-01 -1.47798e-01 2.41362e-01
1.85984 -2.00089 46.00503 -1.52371e-01 -1.11573e-01 1.28247e-01 -1.52371e-01 1.28247e-01 -1.11573e-01 2.28282e-01
-2.12998 -1.97889 46.00503 -1.65325e-01 1.12506e-01 1.30606e-01 -1.65325e-01 1.30606e-01 1.12506e-01 2.38847e-01
-6.14378 -1.98929 46.00503 -1.75542e-01 1.35214e-01 1.18752e-01 -1.75542e-01 1.18752e-01 1.35214e-01 2.51396e-01
-10.15988 -2.12649 46.00503 -1.70982e-01 1.49590e-01 -1.40046e-01 -1.70982e-01 -1.40046e-01 1.49590e-01 2.66880e-01
-14.16878 -2.16629 46.00503 -1.68964e-01 1.38771e-01 -1.48617e-01 -1.68964e-01 -1.48617e-01 1.38771e-01 2.64373e-01
21.89560 -6.04619 46.00503 -1.52892e-01 1.47037e-01 9.38195e-02 -1.52892e-01 9.38195e-02 1.47037e-01 2.31944e-01
17.90750 -6.02499 46.00503 -1.55392e-01 1.56209e-01 1.31184e-01 -1.55392e-01 1.31184e-01 1.56209e-01 2.56432e-01
13.90500 -6.20089 46.00503 -1.56098e-01 1.20286e-01 -1.42448e-01 -1.56098e-01 -1.42448e-01 1.20286e-01 2.43160e-01
9.90445 -6.20149 46.00503 -1.49760e-01 -1.23222e-01 -1.49011e-01 -1.49760e-01 -1.49011e-01 -1.23222e-01 2.44574e-01
5.89823 -6.01449 46.00503 -1.42303e-01 -1.49183e-01 1.21470e-01 -1.42303e-01 1.21470e-01 -1.49183e-01 2.39292e-01
1.87367 -6.01879 46.00503 -1.54743e-01 -1.13395e-01 1.42386e-01 -1.54743e-01 1.42386e-01 -1.13395e-01 2.38909e-01
-2.13008 -6.01069 46.00503 -1.61117e-01 1.24518e-01 1.36591e-01 -1.61117e-01 1.36591e-01 1.24518e-01 2.45195e-01
-6.15428 -5.99189 46.00503 -1.69271e-01 1.39933e-01 1.22862e-01 -1.69271e-01 1.22862e-01 1.39933e-01 2.51653e-01
-10.16558 -6.15239 46.00503 -1.66527e-01 1.28669e-01 -1.51020e-01 -1.66527e-01 -1.51020e-01 1.28669e-01 2.59026e-01
-14.17148 -6.19449 46.00503 -1.61648e-01 1.14173e-01 -1.48820e-01 -1.61648e-01 -1.48820e-01 1.14173e-01 2.47615e-01
21.89740 -10.04879 46.00503 -1.68344e-01 1.22482e-01 9.33628e-02 -1.68344e-01 9.33628e-02 1.22482e-01 2.28162e-01
17.90980 -10.03939 46.00503 -1.66239e-01 1.54501e-01 1.24844e-01 -1.66239e-01 1.24844e-01 1.54501e-01 2.59021e-01
13.90760 -10.19159 46.00503 -1.45460e-01 1.43066e-01 -1.40390e-01 -1.45460e-01 -1.40390e-01 1.43066e-01 2.47661e-01
9.89430 -10.21909 46.00503 -1.36812e-01 9.37232e-02 -1.42005e-01 -1.36812e-01 -1.42005e-01 9.37232e-02 2.18328e-01
5.88502 -10.02949 46.00503 -1.39716e-01 -1.33064e-01 1.39224e-01 -1.39716e-01 1.39224e-01 -1.33064e-01 2.37929e-01
1.87217 -10.01029 46.00503 -1.58872e-01 1.13863e-01 1.57113e-01 -1.58872e-01 1.57113e-01 1.13863e-01 2.50778e-01
-2.13378 -10.01109 46.00503 -1.63885e-01 1.46252e-01 1.34951e-01 -1.63885e-01 1.34951e-01 1.46252e-01 2.57798e-01
-6.15208 -9.97419 46.00503 -1.55787e-01 1.36340e-01 1.38610e-01 -1.55787e-01 1.38610e-01 1.36340e-01 2.49140e-01
-10.15068 -10.17489 46.00503 -1.55053e-01 -1.08076e-01 -1.42183e-01 -1.55053e-01 -1.42183e-01 -1.08076e-01 2.36512e-01
-14.16158 -10.21609 46.00503 -1.51875e-01 -1.26568e-01 -1.44119e-01 -1.51875e-01 -1.44119e-01 -1.26568e-01 2.44655e-01
21.92060 -14.06719 46.00503 -1.44719e-01 -1.12445e-01 1.15341e-01 -1.44719e-01 1.15341e-01 -1.12445e-01 2.16544e-01
17.91400 -14.05139 46.00503 -1.50537e-01 1.40578e-01 1.24192e-01 -1.50537e-01 1.24192e-01 1.40578e-01 2.40515e-01
13.89230 -14.21009 46.00503 -1.43989e-01 1.53032e-01 -1.40067e-01 -1.43989e-01 -1.40067e-01 1.53032e-01 2.52527e-01
9.89270 -14.21889 46.00503 -1.42260e-01 1.19145e-01 -1.40171e-01 -1.42260e-01 -1.40171e-01 1.19145e-01 2.32555e-01
5.88705 -14.03579 46.00503 -1.45917e-01 -1.12824e-01 1.45413e-01 -1.45917e-01 1.45413e-01 -1.12824e-01 2.34874e-01
1.89188 -14.02379 46.00503 -1.42801e-01 1.35758e-01 1.58244e-01 -1.42801e-01 1.58244e-01 1.35758e-01 2.52713e-01
-2.11478 -14.01639 46.00503 -1.38613e-01 1.31393e-01 1.54682e-01 -1.38613e-01 1.54682e-01 1.31393e-01 2.45773e-01
-6.13508 -14.00519 46.00503 -1.49247e-01 1.26763e-01 1.39588e-01 -1.49247e-01 1.39588e-01 1.26763e-01 2.40475e-01
-10.15218 -14.18499 46.00503 -1.46317e-01 -1.04859e-01 -1.40370e-01 -1.46317e-01 -1.40370e-01 -1.04859e-01 2.28271e-01
-14.15798 -14.20929 46.00503 -1.44535e-01 -1.45367e-01 -1.42925e-01 -1.44535e-01 -1.42925e-01 -1.45367e-01 2.49899e-01
ZONE T="XZ_mid_T1.500_C46.005_TS20000", I=10, J=10, K=1, DATAPACKING=POINT, STRANDID=1, SOLUTIONTIME=20000.000000
22.10150 22.08590 46.00503 8.97154e-02 -1.30099e-01 1.23560e-01 8.97154e-02 1.23560e-01 -1.30099e-01 2.00603e-01
18.06930 22.09160 46.00503 1.02263e-01 1.15817e-01 1.41393e-01 1.02263e-01 1.41393e-01 1.15817e-01 2.09435e-01
14.04550 21.91060 46.00503 1.12806e-01 1.62528e-01 -1.06683e-01 1.12806e-01 -1.06683e-01 1.62528e-01 2.24771e-01
10.06300 21.93560 46.00503 1.11353e-01 1.50565e-01 -1.25227e-01 1.11353e-01 -1.25227e-01 1.50565e-01 2.25280e-01
6.05377 22.11360 46.00503 1.01642e-01 1.30622e-01 1.37710e-01 1.01642e-01 1.37710e-01 1.30622e-01 2.15307e-01
2.04335 22.11870 46.00503 9.62209e-02 1.34302e-01 1.51355e-01 9.62209e-02 1.51355e-01 1.34302e-01 2.24062e-01
-1.96048 22.11830 46.00503 1.19117e-01 1.48700e-01 1.48737e-01 1.19117e-01 1.48737e-01 1.48700e-01 2.41708e-01
-5.97758 22.12540 46.00503 1.20115e-01 1.35515e-01 1.34322e-01 1.20115e-01 1.34322e-01 1.35515e-01 2.25465e-01
-9.98478 21.94650 46.00503 1.02473e-01 -1.19590e-01 -1.63910e-01 1.02473e-01 -1.63910e-01 -1.19590e-01 2.27308e-01
-13.97528 21.93100 46.00503 8.57291e-02 -1.51139e-01 -1.51585e-01 8.57291e-02 -1.51585e-01 -1.51139e-01 2.30587e-01
22.08220 18.07210 46.00503 1.11707e-01 -1.40503e-01 1.13107e-01 1.11707e-01 1.13107e-01 -1.40503e-01 2.12162e-01
18.07050 18.08930 46.00503 1.10913e-01 -1.33355e-01 1.23849e-01 1.10913e-01 1.23849e-01 -1.33355e-01 2.13128e-01
14.07150 17.91260 46.00503 1.07071e-01 1.46230e-01 -1.26116e-01 1.07071e-01 -1.26116e-01 1.46230e-01 2.20800e-01
10.07780 17.92200 46.00503 1.24017e-01 1.13149e-01 -1.36495e-01 1.24017e-01 -1.36495e-01 1.13149e-01 2.16365e-01
6.04455 18.09380 46.00503 1.32525e-01 -8.81861e-02 1.42653e-01 1.32525e-01 1.42653e-01 -8.81861e-02 2.13752e-01
2.01524 18.09860 46.00503 1.40258e-01 -1.11030e-01 1.46495e-01 1.40258e-01 1.46495e-01 -1.11030e-01 2.31216e-01
-1.96698 18.10090 46.00503 1.21861e-01 1.23236e-01 1.57135e-01 1.21861e-01 1.57135e-01 1.23236e-01 2.33941e-01
-5.97738 18.09760 46.00503 1.19764e-01 1.35085e-01 1.24318e-01 1.19764e-01 1.24318e-01 1.35085e-01 2.19195e-01
-9.95888 17.92970 46.00503 1.28153e-01 -9.77683e-02 -1.52961e-01 1.28153e-01 -1.52961e-01 -9.77683e-02 2.22213e-01
-13.96438 17.92480 46.00503 1.22944e-01 -1.07270e-01 -1.60126e-01 1.22944e-01 -1.60126e-01 -1.07270e-01 2.28610e-01
21.92300 14.04850 46.00503 -1.51873e-01 -1.31768e-01 1.03675e-01 -1.51873e-01 1.03675e-01 -1.31768e-01 2.26223e-01
17.90690 14.07310 46.00503 -1.46357e-01 -1.02356e-01 1.30128e-01 -1.46357e-01 1.30128e-01 -1.02356e-01 2.20976e-01
13.90030 13.89200 46.00503 -1.31091e-01 1.36730e-01 -1.39381e-01 -1.31091e-01 -1.39381e-01 1.36730e-01 2.35174e-01
9.89486 13.90440 46.00503 -1.31874e-01 1.18578e-01 -1.41841e-01 -1.31874e-01 -1.41841e-01 1.18578e-01 2.27091e-01
5.89613 14.08150 46.00503 -1.24473e-01 -1.12958e-01 1.35102e-01 -1.24473e-01 1.35102e-01 -1.12958e-01 2.15651e-01
1.87799 14.08180 46.00503 -1.18288e-01 -1.39065e-01 1.44812e-01 -1.18288e-01 1.44812e-01 -1.39065e-01 2.33027e-01
-2.11248 14.06580 46.00503 -1.24115e-01 -1.21967e-01 1.52296e-01 -1.24115e-01 1.52296e-01 -1.21967e-01 2.31246e-01
-6.12548 14.07400 46.00503 -1.32691e-01 -1.29694e-01 1.17574e-01 -1.32691e-01 1.17574e-01 -1.29694e-01 2.19661e-01
-10.11728 13.91880 46.00503 -1.44178e-01 -1.04361e-01 -1.43643e-01 -1.44178e-01 -1.43643e-01 -1.04361e-01 2.28718e-01
-14.14078 13.91000 46.00503 -1.45875e-01 -1.17917e-01 -1.60762e-01 -1.45875e-01 -1.60762e-01 -1.17917e-01 2.47039e-01
21.91670 10.04250 46.00503 -1.63594e-01 1.28262e-01 1.10389e-01 -1.63594e-01 1.10389e-01 1.28262e-01 2.35372e-01
17.91360 10.05170 46.00503 -1.63398e-01 1.36093e-01 1.28677e-01 -1.63398e-01 1.28677e-01 1.36093e-01 2.48552e-01
13.91260 9.87527 46.00503 -1.57631e-01 1.34424e-01 -1.39775e-01 -1.57631e-01 -1.39775e-01 1.34424e-01 2.49909e-01
9.89838 9.88068 46.00503 -1.55448e-01 1.27119e-01 -1.33359e-01 -1.55448e-01 -1.33359e-01 1.27119e-01 2.41056e-01
5.88462 10.03670 46.00503 -1.47425e-01 8.00950e-02 1.28207e-01 -1.47425e-01 1.28207e-01 8.00950e-02 2.11155e-01
1.88349 10.06270 46.00503 -1.41761e-01 -1.18515e-01 1.27725e-01 -1.41761e-01 1.27725e-01 -1.18515e-01 2.24623e-01
-2.09838 10.05530 46.00503 -1.47024e-01 -1.30121e-01 1.52735e-01 -1.47024e-01 1.52735e-01 -1.30121e-01 2.48748e-01
-6.12808 10.06350 46.00503 -1.52988e-01 -1.29131e-01 1.09584e-01 -1.52988e-01 1.09584e-01 -1.29131e-01 2.28230e-01
-10.15188 9.91155 46.00503 -1.42241e-01 1.24758e-01 -1.49236e-01 -1.42241e-01 -1.49236e-01 1.24758e-01 2.40974e-01
-14.15428 9.88206 46.00503 -1.47669e-01 1.21388e-01 -1.56447e-01 -1.47669e-01 -1.56447e-01 1.21388e-01 2.47016e-01
21.91400 6.03855 46.00503 -1.64302e-01 1.42763e-01 1.17903e-01 -1.64302e-01 1.17903e-01 1.42763e-01 2.47543e-01
17.91510 6.01839 46.00503 -1.51582e-01 1.45699e-01 1.19715e-01 -1.51582e-01 1.19715e-01 1.45699e-01 2.41944e-01
13.89890 5.86456 46.00503 -1.50167e-01 1.25108e-01 -1.40235e-01 -1.50167e-01 -1.40235e-01 1.25108e-01 2.40558e-01
9.86963 5.85848 46.00503 -1.48302e-01 -1.11482e-01 -1.39561e-01 -1.48302e-01 -1.39561e-01 -1.11482e-01 2.32162e-01
5.87227 6.01629 46.00503 -1.37554e-01 -1.38421e-01 1.25802e-01 -1.37554e-01 1.25802e-01 -1.38421e-01 2.32181e-01
1.88584 6.04071 46.00503 -1.34212e-01 -1.44268e-01 1.27427e-01 -1.34212e-01 1.27427e-01 -1.44268e-01 2.34657e-01
-2.10628 6.02488 46.00503 -1.51968e-01 -1.12003e-01 1.51451e-01 -1.51968e-01 1.51451e-01 -1.12003e-01 2.42026e-01
-6.12608 6.05172 46.00503 -1.64194e-01 9.37762e-02 1.02853e-01 -1.64194e-01 1.02853e-01 9.37762e-02 2.15250e-01
-10.16538 5.91790 46.00503 -1.64976e-01 1.28533e-01 -1.41088e-01 -1.64976e-01 -1.41088e-01 1.28533e-01 2.52277e-01
-14.16198 5.87150 46.00503 -1.63203e-01 1.33066e-01 -1.46867e-01 -1.63203e-01 -1.46867e-01 1.33066e-01 2.56733e-01
21.90420 2.00030 46.00503 -1.60606e-01 1.52045e-01 1.14129e-01 -1.60606e-01 1.14129e-01 1.52045e-01 2.48872e-01
17.90810 1.99069 46.00503 -1.61351e-01 1.35895e-01 1.13589e-01 -1.61351e-01 1.13589e-01 1.35895e-01 2.39592e-01
13.88650 1.83953 46.00503 -1.62822e-01 -8.73337e-02 -1.41092e-01 -1.62822e-01 -1.41092e-01 -8.73337e-02 2.32476e-01
9.87525 1.83855 46.00503 -1.60501e-01 -1.38410e-01 -1.46792e-01 -1.60501e-01 -1.46792e-01 -1.38410e-01 2.57809e-01
5.87388 1.99987 46.00503 -1.55556e-01 -1.41109e-01 1.11275e-01 -1.55556e-01 1.11275e-01 -1.41109e-01 2.37680e-01
1.88458 2.00863 46.00503 -1.53649e-01 -1.44704e-01 1.31852e-01 -1.53649e-01 1.31852e-01 -1.44704e-01 2.48862e-01
-2.12168 2.02146 46.00503 -1.76869e-01 -5.59830e-02 1.41912e-01 -1.76869e-01 1.41912e-01 -5.59830e-02 2.33571e-01
-6.15108 2.03825 46.00503 -1.78902e-01 1.35121e-01 1.04585e-01 -1.78902e-01 1.04585e-01 1.35121e-01 2.47390e-01
-10.16238 1.88867 46.00503 -1.60569e-01 1.34580e-01 -1.42183e-01 -1.60569e-01 -1.42183e-01 1.34580e-01 2.53200e-01